                               Psi4 1.3.2 release

  ==> Input File <==

--------------------------------------------------------------------------
molecule {
0 1
N           -0.722156283038    -0.004423082368    -0.048588286373
C            0.737742160428    -0.000901070855    -0.010586967857
H            1.186936028755     0.089475113060     0.992767157294
H            1.109349603056     0.828760686746    -0.620082520112
H            1.109460330258    -0.926021396300    -0.462115376391
H           -1.078071407997     0.848688803630     0.372536741546
H           -1.077951726461    -0.768718455164     0.518053879878
}
memory 700MB
set_num_threads(1)
psi4_io.set_default_path("/scratch/bdw2292/Psi4-methylamine")
set freeze_core True
set PROPERTIES_ORIGIN ["COM"]
E, wfn = energy('mp2/6-311G**',properties=['dipole'],return_wfn=True)
fchk(wfn, "methylamine-dma.fchk")
clean()
--------------------------------------------------------------------------

    Molecular point group: c1

    Geometry (in Angstrom), charge = 0, multiplicity = 1:

       Center              X                  Y                   Z               Mass
    ------------   -----------------  -----------------  -----------------  -----------------
         N           -0.722156283038    -0.004423082368    -0.048588286373    14.003074004430
         C            0.737742160428    -0.000901070855    -0.010586967857    12.000000000000
         H            1.186936028755     0.089475113060     0.992767157294     1.007825032230
         H            1.109349603056     0.828760686746    -0.620082520112     1.007825032230
         H            1.109460330258    -0.926021396300    -0.462115376391     1.007825032230
         H           -1.078071407997     0.848688803630     0.372536741546     1.007825032230
         H           -1.077951726461    -0.768718455164     0.518053879878     1.007825032230

  Charge       = 0
  Multiplicity = 1
  Basis Set: 6-311G**
    Blend: 6-311G**
  Basis Set: (6-311G** AUX)
    Blend: CC-PVTZ-JKFIT

    Orbital Energies [Eh]
    ---------------------

    Doubly Occupied:

       1A    -15.530850     2A    -11.241091     3A     -1.166238
       4A     -0.891233     5A     -0.657665     6A     -0.600175
       7A     -0.551975     8A     -0.512733     9A     -0.388505

  @DF-RHF Final Energy:   -95.24179900956659

   => Energetics <=

    Nuclear Repulsion Energy =             41.9992218434073195
    One-Electron Energy =                -211.4011102312284720
    Two-Electron Energy =                  74.1600893782545540
    Total Energy =                        -95.2417990095665914

  Dipole Moment: [D]
     X:     0.3786      Y:     0.1276      Z:     1.4182     Total:     1.4734

  Basis Set: (6-311G** AUX)
    Blend: CC-PVTZ-RI
	 Reference Energy          =     -95.2417990095665914 [Eh]
	 Singles Energy            =      -0.0000000000000000 [Eh]
	 Same-Spin Energy          =      -0.0778079804123026 [Eh]
	 Opposite-Spin Energy      =      -0.2677684796091264 [Eh]
	 Correlation Energy        =      -0.3455764600214290 [Eh]
	 Total Energy              =     -95.5873754695880251 [Eh]

	 ================> DF-SCS-MP2 Energies <==================
	-----------------------------------------------------------
	 SCS Same-Spin Scale       =       0.3333333333333333 [-]
	 SCS Opposite-Spin Scale   =       1.2000000000000000 [-]
	 SCS Same-Spin Energy      =      -0.0259359934707675 [Eh]
	 SCS Opposite-Spin Energy  =      -0.3213221755309517 [Eh]
	 SCS Correlation Energy    =      -0.3472581690017192 [Eh]
	 SCS Total Energy          =     -95.5890571785683107 [Eh]
	-----------------------------------------------------------

*** Psi4 exiting successfully. Buy a developer a beer!
