                               Psi4 1.3.2 release

  ==> Input File <==

--------------------------------------------------------------------------
molecule {
0 1
 N   -0.727000   -0.000000   -0.003000
 C    0.725000   -0.000000   -0.002000
 H    1.109000    0.092000    1.018000
 H    1.103000    0.837000   -0.595000
 H    1.103000   -0.929000   -0.436000
 H   -1.066000    0.857000    0.432000
 H   -1.066000   -0.766000    0.578000
}
set {
  geom_maxiter 3
  g_convergence GAU_LOOSE
}
memory 700MB
set_num_threads(1)
psi4_io.set_default_path("/scratch/bdw2292/Psi4-methylamine")
for _ in range(1):
  try:
    optimize('wb97x-d/6-31G*')
    break
  except OptimizationConvergenceError:
    try:
      set opt_coordinates cartesian
      optimize('wb97x-d/6-31G*')
      break
    except OptimizationConvergenceError:
      pass
clean()
--------------------------------------------------------------------------

    Molecular point group: c1
  Charge       = 0
  Multiplicity = 1
  Basis Set: 6-31G*
    Blend: 6-31G*
  Basis Set: (6-31G* AUX)
    Blend: CC-PVDZ-JKFIT
  @DF-RKS Final Energy:   -95.82032540036020
    Total Energy =                        -95.8203254003602041
    Molecular point group: c1
  Basis Set: 6-31G*
    Blend: 6-31G*
  Basis Set: (6-31G* AUX)
    Blend: CC-PVDZ-JKFIT
  Basis Set: 6-31G*
    Blend: 6-31G*
  Basis Set: (6-31G* AUX)
    Blend: CC-PVDZ-JKFIT
  @DF-RKS Final Energy:   -95.82126725177724
    Total Energy =                        -95.8212672517772432
  Basis Set: 6-31G*
    Blend: 6-31G*
  Basis Set: (6-31G* AUX)
    Blend: CC-PVDZ-JKFIT
  Charge       = 0
  Multiplicity = 1
  Basis Set: 6-31G*
    Blend: 6-31G*
  Basis Set: (6-31G* AUX)
    Blend: CC-PVDZ-JKFIT

    Orbital Energies [Eh]
    ---------------------

    Doubly Occupied:

       1A    -14.423896     2A    -10.306915     3A     -0.968785
       4A     -0.749563     5A     -0.571537     6A     -0.519725
       7A     -0.480019     8A     -0.445039     9A     -0.310697

  @DF-RKS Final Energy:   -95.82133852190191

   => Energetics <=

    Nuclear Repulsion Energy =             41.9992218434046052
    One-Electron Energy =                -211.5798229320459996
    Two-Electron Energy =                  83.4079698784822625
    DFT Exchange-Correlation Energy =      -9.6473777672977832
    Empirical Dispersion Energy =          -0.0013295444449791
    VV10 Nonlocal Energy =                  0.0000000000000000
    Total Energy =                        -95.8213385219019074

  Dipole Moment: [D]
     X:     0.3358      Y:     0.1328      Z:     1.4757     Total:     1.5193

    Molecular point group: c1
  Basis Set: 6-31G*
    Blend: 6-31G*
  Basis Set: (6-31G* AUX)
    Blend: CC-PVDZ-JKFIT

  -Total Gradient:
     Atom            X                  Y                   Z
    ------   -----------------  -----------------  -----------------
       1       -0.000608913637    -0.000026684642    -0.000297065513
       2        0.000577391884     0.000007304533     0.000146643338
       3        0.000123810085    -0.000001515817    -0.000045074377
       4       -0.000084327844    -0.000028105296    -0.000001014384
       5       -0.000087315441     0.000030931249    -0.000006630385
       6        0.000089882463     0.000005600848     0.000072851290
       7        0.000090185466     0.000007351988     0.000072097159

  **** Optimization is complete! (in 3 steps) ****
    Final optimized geometry and variables:
    Molecular point group: c1

    Geometry (in Angstrom), charge = 0, multiplicity = 1:

    N           -0.722156283038    -0.004423082368    -0.048588286373
    C            0.737742160428    -0.000901070855    -0.010586967857
    H            1.186936028755     0.089475113060     0.992767157294
    H            1.109349603056     0.828760686746    -0.620082520112
    H            1.109460330258    -0.926021396300    -0.462115376391
    H           -1.078071407997     0.848688803630     0.372536741546
    H           -1.077951726461    -0.768718455164     0.518053879878

*** Psi4 exiting successfully. Buy a developer a beer!
