                               Psi4 1.3.2 release

  ==> Input File <==

--------------------------------------------------------------------------
molecule {
0 1
N           -0.000161846350     0.000372582542     0.068626091695
H            0.918801651463    -0.203885443302    -0.314671447792
H           -0.633383441492    -0.695552035101    -0.315878080793
H           -0.283169460091     0.894260686063    -0.322965426799
}
memory 700MB
set_num_threads(1)
psi4_io.set_default_path("/scratch/bdw2292")
set freeze_core True
set PROPERTIES_ORIGIN ["COM"]
E, wfn = energy('mp2/6-311G**',properties=['dipole'],return_wfn=True)
fchk(wfn, "ammonia-dma.fchk")
clean()
--------------------------------------------------------------------------

    Molecular point group: c1

    Geometry (in Angstrom), charge = 0, multiplicity = 1:

       Center              X                  Y                   Z               Mass
    ------------   -----------------  -----------------  -----------------  -----------------
         N           -0.000161846350     0.000372582542     0.068626091695    14.003074004430
         H            0.918801651463    -0.203885443302    -0.314671447792     1.007825032230
         H           -0.633383441492    -0.695552035101    -0.315878080793     1.007825032230
         H           -0.283169460091     0.894260686063    -0.322965426799     1.007825032230

  Charge       = 0
  Multiplicity = 1
  Basis Set: 6-311G**
    Blend: 6-311G**
  Basis Set: (6-311G** AUX)
    Blend: CC-PVTZ-JKFIT

    Orbital Energies [Eh]
    ---------------------

    Doubly Occupied:

       1A    -15.530207     2A     -1.133997     3A     -0.620074
       4A     -0.619956     5A     -0.423598

  @DF-RHF Final Energy:   -56.20980429888020

   => Energetics <=

    Nuclear Repulsion Energy =             11.9093493070913112
    One-Electron Energy =                 -99.5826425012225087
    Two-Electron Energy =                  31.4634888952509897
    Total Energy =                        -56.2098042988802007

  Dipole Moment: [D]
     X:     0.0041      Y:    -0.0091      Z:    -1.7809     Total:     1.7810

  Basis Set: (6-311G** AUX)
    Blend: CC-PVTZ-RI
	 Reference Energy          =     -56.2098042988802007 [Eh]
	 Singles Energy            =      -0.0000000000000000 [Eh]
	 Same-Spin Energy          =      -0.0453178837916189 [Eh]
	 Opposite-Spin Energy      =      -0.1536081932466109 [Eh]
	 Correlation Energy        =      -0.1989260770382298 [Eh]
	 Total Energy              =     -56.4087303759184309 [Eh]

	 ================> DF-SCS-MP2 Energies <==================
	-----------------------------------------------------------
	 SCS Same-Spin Scale       =       0.3333333333333333 [-]
	 SCS Opposite-Spin Scale   =       1.2000000000000000 [-]
	 SCS Same-Spin Energy      =      -0.0151059612638730 [Eh]
	 SCS Opposite-Spin Energy  =      -0.1843298318959331 [Eh]
	 SCS Correlation Energy    =      -0.1994357931598060 [Eh]
	 SCS Total Energy          =     -56.4092400920400081 [Eh]
	-----------------------------------------------------------

*** Psi4 exiting successfully. Buy a developer a beer!
