                               Psi4 1.3.2 release

  ==> Input File <==

--------------------------------------------------------------------------
molecule {
0 1
 N   -0.004700    0.010500    0.239900
 H    0.951900   -0.223400   -0.078500
 H   -0.652300   -0.746700   -0.079000
 H   -0.294900    0.959600   -0.082400
}
set {
  geom_maxiter 3
  g_convergence GAU_LOOSE
}
memory 700MB
set_num_threads(1)
psi4_io.set_default_path("/scratch/bdw2292")
for _ in range(1):
  try:
    optimize('wb97x-d/6-31G*')
    break
  except OptimizationConvergenceError:
    try:
      set opt_coordinates cartesian
      optimize('wb97x-d/6-31G*')
      break
    except OptimizationConvergenceError:
      pass
clean()
--------------------------------------------------------------------------

    Molecular point group: c1
  Charge       = 0
  Multiplicity = 1
  Basis Set: 6-31G*
    Blend: 6-31G*
  Basis Set: (6-31G* AUX)
    Blend: CC-PVDZ-JKFIT
  @DF-RKS Final Energy:   -56.52554917467148
    Total Energy =                        -56.5255491746714895
    Molecular point group: c1
  Basis Set: 6-31G*
    Blend: 6-31G*
  Basis Set: (6-31G* AUX)
    Blend: CC-PVDZ-JKFIT
  Basis Set: 6-31G*
    Blend: 6-31G*
  Basis Set: (6-31G* AUX)
    Blend: CC-PVDZ-JKFIT
  @DF-RKS Final Energy:   -56.52914724042741
    Total Energy =                        -56.5291472404274202
  Basis Set: 6-31G*
    Blend: 6-31G*
  Basis Set: (6-31G* AUX)
    Blend: CC-PVDZ-JKFIT
  Charge       = 0
  Multiplicity = 1
  Basis Set: 6-31G*
    Blend: 6-31G*
  Basis Set: (6-31G* AUX)
    Blend: CC-PVDZ-JKFIT

    Orbital Energies [Eh]
    ---------------------

    Doubly Occupied:

       1A    -14.420474     2A     -0.942750     3A     -0.538729
       4A     -0.538647     5A     -0.336118

  @DF-RKS Final Energy:   -56.52930601083931

   => Energetics <=

    Nuclear Repulsion Energy =             11.9093493070922953
    One-Electron Energy =                 -99.6355061484341462
    Two-Electron Energy =                  36.6645440927981667
    DFT Exchange-Correlation Energy =      -5.4675727237550049
    Empirical Dispersion Energy =          -0.0001205385406259
    VV10 Nonlocal Energy =                  0.0000000000000000
    Total Energy =                        -56.5293060108393135

  Dipole Moment: [D]
     X:     0.0045      Y:    -0.0100      Z:    -1.9386     Total:     1.9386

    Molecular point group: c1
  Basis Set: 6-31G*
    Blend: 6-31G*
  Basis Set: (6-31G* AUX)
    Blend: CC-PVDZ-JKFIT

  -Total Gradient:
     Atom            X                  Y                   Z
    ------   -----------------  -----------------  -----------------
       1       -0.000031920966     0.000221860370    -0.000264389884
       2        0.000207750914    -0.000109294995     0.000066255497
       3       -0.000093541971    -0.000164066512     0.000024840684
       4        0.000043666502    -0.000057158203     0.000104765164

  **** Optimization is complete! (in 3 steps) ****
    Final optimized geometry and variables:
    Molecular point group: c1

    Geometry (in Angstrom), charge = 0, multiplicity = 1:

    N           -0.000161846350     0.000372582542     0.068626091695
    H            0.918801651463    -0.203885443302    -0.314671447792
    H           -0.633383441492    -0.695552035101    -0.315878080793
    H           -0.283169460091     0.894260686063    -0.322965426799

*** Psi4 exiting successfully. Buy a developer a beer!
