                               Psi4 1.3.2 release

  ==> Input File <==

--------------------------------------------------------------------------
molecule {
0 1
N          0.74960        0.00000       -0.12497
C         -0.70384        0.00000        0.01748
H         -1.07854       -0.00016        1.05465
H         -1.11299       -0.88111       -0.48649
H         -1.11294        0.88126       -0.48625
H          1.14017       -0.81208        0.34396
H          1.14017        0.81206        0.34401
}
memory 5GB
set_num_threads(4)
psi4_io.set_default_path("/scratch/bdw2292/Psi4-methylamine")
set freeze_core True
set PROPERTIES_ORIGIN ["COM"]
E, wfn = energy('mp2/6-311G**',properties=['dipole'],return_wfn=True)
fchk(wfn, "methylamine-dma.fchk")
clean()
--------------------------------------------------------------------------

    Molecular point group: c1

    Geometry (in Angstrom), charge = 0, multiplicity = 1:

       Center              X                  Y                   Z               Mass
    ------------   -----------------  -----------------  -----------------  -----------------
         N            0.716790455224     0.000000973989    -0.100348683113    14.003074004430
         C           -0.736649544776     0.000000973989     0.042101316887    12.000000000000
         H           -1.111349544776    -0.000159026011     1.079271316887     1.007825032230
         H           -1.145799544776    -0.881109026011    -0.461868683113     1.007825032230
         H           -1.145749544776     0.881260973989    -0.461628683113     1.007825032230
         H            1.107360455224    -0.812079026011     0.368581316887     1.007825032230
         H            1.107360455224     0.812060973989     0.368631316887     1.007825032230

  Charge       = 0
  Multiplicity = 1
  Basis Set: 6-311G**
    Blend: 6-311G**
  Basis Set: (6-311G** AUX)
    Blend: CC-PVTZ-JKFIT

    Orbital Energies [Eh]
    ---------------------

    Doubly Occupied:

       1A    -15.530814     2A    -11.241052     3A     -1.166192
       4A     -0.891254     5A     -0.657666     6A     -0.600127
       7A     -0.552022     8A     -0.512849     9A     -0.388419

  @DF-RHF Final Energy:   -95.24180748516210

   => Energetics <=

    Nuclear Repulsion Energy =             42.0000548921537700
    One-Electron Energy =                -211.4029344220237476
    Two-Electron Energy =                  74.1610720447078791
    Total Energy =                        -95.2418074851620986

  Dipole Moment: [D]
     X:    -0.2760      Y:    -0.0000      Z:     1.4474     Total:     1.4734

  Basis Set: (6-311G** AUX)
    Blend: CC-PVTZ-RI
	 Reference Energy          =     -95.2418074851620986 [Eh]
	 Singles Energy            =      -0.0000000000000000 [Eh]
	 Same-Spin Energy          =      -0.0778061773223738 [Eh]
	 Opposite-Spin Energy      =      -0.2677625536771053 [Eh]
	 Correlation Energy        =      -0.3455687309994792 [Eh]
	 Total Energy              =     -95.5873762161615730 [Eh]

	 ================> DF-SCS-MP2 Energies <==================
	-----------------------------------------------------------
	 SCS Same-Spin Scale       =       0.3333333333333333 [-]
	 SCS Opposite-Spin Scale   =       1.2000000000000000 [-]
	 SCS Same-Spin Energy      =      -0.0259353924407913 [Eh]
	 SCS Opposite-Spin Energy  =      -0.3213150644125264 [Eh]
	 SCS Correlation Energy    =      -0.3472504568533177 [Eh]
	 SCS Total Energy          =     -95.5890579420154154 [Eh]
	-----------------------------------------------------------

*** Psi4 exiting successfully. Buy a developer a beer!
