 Gaussian 09, Revision A.02,
 Gaussian 09:  EM64L-G09RevA.02 11-Jun-2009

 ---------------------------------------------------------------
 #P opt=(maxcycle=3,Loose) wB97XD/6-31G* Guess=INDO MaxDisk=20GB
 ---------------------------------------------------------------

 -------------------------------------------------------------
 methylamine Gaussian OPT Calculation on node37.bme.utexas.edu
 -------------------------------------------------------------
 Symbolic Z-matrix:
 Charge =  0 Multiplicity = 1

 SCF Done:  E(RwB97XD) =  -95.8202827170     A.U. after   16 cycles
 SCF Done:  E(RwB97XD) =  -95.8212425139     A.U. after   18 cycles
 SCF Done:  E(RwB97XD) =  -95.8212943182     A.U. after   12 cycles
 Optimization completed.
    -- Stationary point found.

                         Standard orientation:
 ---------------------------------------------------------------------
 Center     Atomic      Atomic             Coordinates (Angstroms)
 Number     Number       Type             X           Y           Z
 ---------------------------------------------------------------------
      1          7           0        0.749598    0.000001   -0.124965
      2          6           0       -0.703842    0.000004    0.017478
      3          1           0       -1.078538   -0.000156    1.054655
      4          1           0       -1.112986   -0.881109   -0.486486
      5          1           0       -1.112943    0.881261   -0.486248
      6          1           0        1.140166   -0.812079    0.343959
      7          1           0        1.140166    0.812056    0.344005
 ---------------------------------------------------------------------

 The electronic state is 1-A.
 Alpha  occ. eigenvalues --  -14.42386 -10.30693  -0.96874  -0.74957  -0.57155
 Alpha  occ. eigenvalues --   -0.51968  -0.48002  -0.44512  -0.31059
 Alpha virt. eigenvalues --    0.17316   0.22870   0.24185   0.26180   0.27210
 Alpha virt. eigenvalues --    0.32401   0.63889   0.65419   0.67877   0.82990
 Alpha virt. eigenvalues --    0.83617   0.89052   0.95808   1.01655   1.02251

 Mulliken atomic charges:
              1
     1  N   -0.746696
     2  C   -0.358182
     3  H    0.137466
     4  H    0.171579
     5  H    0.171580
     6  H    0.312127
     7  H    0.312127
 Sum of Mulliken atomic charges =   0.00000

 Dipole moment (field-independent basis, Debye):
    X=             -0.2294    Y=              0.0000    Z=              1.5023  Tot=              1.5197
 Quadrupole moment (field-independent basis, Debye-Ang):
   XX=            -13.5385   YY=            -12.3457   ZZ=            -15.0544
   XY=             -0.0001   XZ=              2.1898   YZ=              0.0000

 Normal termination of Gaussian 09 at Mon Sep 21 15:12:13 2020.
