                               Psi4 1.3.2 release

  ==> Input File <==

--------------------------------------------------------------------------
molecule {
0 1
P            0.419542673898     0.035762747716    -0.003810801367
O           -0.918182549819     0.900560792235    -0.109048970751
O            0.243659319461    -1.121635002831    -1.107834591046
O            0.241179409466    -0.827401542624     1.342438522029
O            1.639149133438     0.847350214145    -0.100025645258
C           -2.196320979082     0.267113545512    -0.034655274690
H           -2.937951569876     1.060777990514    -0.130526877293
H           -2.317561983477    -0.239790714111     0.927319953142
H           -2.315476278857    -0.452610985529    -0.850006935297
H            0.848569846191    -0.960706936023    -1.843517496782
H            0.842712682664    -0.495242616031     2.021315419463
}
memory 20GB
set_num_threads(4)
psi4_io.set_default_path("/scratch/bdw2292/Psi4-MethylDihydrogenPhosphate")
set freeze_core True
set PROPERTIES_ORIGIN ["COM"]
E, wfn = energy('mp2/6-311G**',properties=['dipole'],return_wfn=True)
fchk(wfn, "MethylDihydrogenPhosphate-dma.fchk")
clean()
--------------------------------------------------------------------------

    Molecular point group: c1

    Geometry (in Angstrom), charge = 0, multiplicity = 1:

       Center              X                  Y                   Z               Mass
    ------------   -----------------  -----------------  -----------------  -----------------
         P            0.419542673898     0.035762747716    -0.003810801367    30.973761998420
         O           -0.918182549819     0.900560792235    -0.109048970751    15.994914619570
         O            0.243659319461    -1.121635002831    -1.107834591046    15.994914619570
         O            0.241179409466    -0.827401542624     1.342438522029    15.994914619570
         O            1.639149133438     0.847350214145    -0.100025645258    15.994914619570
         C           -2.196320979082     0.267113545512    -0.034655274690    12.000000000000
         H           -2.937951569876     1.060777990514    -0.130526877293     1.007825032230
         H           -2.317561983477    -0.239790714111     0.927319953142     1.007825032230
         H           -2.315476278857    -0.452610985529    -0.850006935297     1.007825032230
         H            0.848569846191    -0.960706936023    -1.843517496782     1.007825032230
         H            0.842712682664    -0.495242616031     2.021315419463     1.007825032230

  Charge       = 0
  Multiplicity = 1
  Basis Set: 6-311G**
    Blend: 6-311G**
  Basis Set: (6-311G** AUX)
    Blend: CC-PVTZ-JKFIT

    Orbital Energies [Eh]
    ---------------------

    Doubly Occupied:

       1A    -80.120185     2A    -20.609797     3A    -20.609783
       4A    -20.597229     5A    -20.518264     6A    -11.300956
       7A     -7.643297     8A     -5.541433     9A     -5.541400
      10A     -5.541039    11A     -1.467999    12A     -1.395945
      13A     -1.394569    14A     -1.311322    15A     -0.971556
      16A     -0.861078    17A     -0.739210    18A     -0.732421
      19A     -0.687314    20A     -0.662399    21A     -0.645689
      22A     -0.643584    23A     -0.591852    24A     -0.563499
      25A     -0.552450    26A     -0.518559    27A     -0.495416
      28A     -0.478384    29A     -0.474150

  @DF-RHF Final Energy:  -681.16282567263477

   => Energetics <=

    Nuclear Repulsion Energy =            362.4842166809054902
    One-Electron Energy =               -1660.8725241376457689
    Two-Electron Energy =                 617.2254817841054546
    Total Energy =                       -681.1628256726347672

  Dipole Moment: [D]
     X:    -2.2644      Y:    -1.5941      Z:     0.1908     Total:     2.7758

  Basis Set: (6-311G** AUX)
    Blend: CC-PVTZ-RI
	 Reference Energy          =    -681.1628256726347672 [Eh]
	 Singles Energy            =      -0.0000000000000000 [Eh]
	 Same-Spin Energy          =      -0.2802718419844271 [Eh]
	 Opposite-Spin Energy      =      -0.7831777920647014 [Eh]
	 Correlation Energy        =      -1.0634496340491286 [Eh]
	 Total Energy              =    -682.2262753066838741 [Eh]

	 ================> DF-SCS-MP2 Energies <==================
	-----------------------------------------------------------
	 SCS Same-Spin Scale       =       0.3333333333333333 [-]
	 SCS Opposite-Spin Scale   =       1.2000000000000000 [-]
	 SCS Same-Spin Energy      =      -0.0934239473281424 [Eh]
	 SCS Opposite-Spin Energy  =      -0.9398133504776416 [Eh]
	 SCS Correlation Energy    =      -1.0332372978057840 [Eh]
	 SCS Total Energy          =    -682.1960629704406074 [Eh]
	-----------------------------------------------------------

*** Psi4 exiting successfully. Buy a developer a beer!
