                               Psi4 1.3.2 release

  ==> Input File <==

--------------------------------------------------------------------------
molecule {
0 1
 P    0.522000   -0.213000    0.025000
 O   -0.785000    0.698000   -0.086000
 O    0.390000   -1.333000   -1.103000
 O    0.388000   -1.033000    1.386000
 O    1.824000    0.508000   -0.061000
 C   -2.045000    0.064000   -0.012000
 H   -2.825000    0.825000   -0.101000
 H   -2.161000   -0.445000    0.949000
 H   -2.160000   -0.653000   -0.830000
 H    1.005000   -1.144000   -1.835000
 H    1.000000   -0.674000    2.054000
}
set {
  geom_maxiter 3
  g_convergence GAU_LOOSE
}
memory 20GB
set_num_threads(4)
psi4_io.set_default_path("/scratch/bdw2292/Psi4-MethylDihydrogenPhosphate")
for _ in range(1):
  try:
    optimize('wb97x-d/6-31G*')
    break
  except OptimizationConvergenceError:
    try:
      set opt_coordinates cartesian
      optimize('wb97x-d/6-31G*')
      break
    except OptimizationConvergenceError:
      pass
clean()
--------------------------------------------------------------------------

    Molecular point group: c1
  Charge       = 0
  Multiplicity = 1
  Basis Set: 6-31G*
    Blend: 6-31G*
  Basis Set: (6-31G* AUX)
    Blend: CC-PVDZ-JKFIT
  @DF-RKS Final Energy:  -683.31128047550885
    Total Energy =                       -683.3112804755088519
    Molecular point group: c1
  Basis Set: 6-31G*
    Blend: 6-31G*
  Basis Set: (6-31G* AUX)
    Blend: CC-PVDZ-JKFIT
  Basis Set: 6-31G*
    Blend: 6-31G*
  Basis Set: (6-31G* AUX)
    Blend: CC-PVDZ-JKFIT
  @DF-RKS Final Energy:  -683.31497834252843
    Total Energy =                       -683.3149783425284340
  Basis Set: 6-31G*
    Blend: 6-31G*
  Basis Set: (6-31G* AUX)
    Blend: CC-PVDZ-JKFIT
  Charge       = 0
  Multiplicity = 1
  Basis Set: 6-31G*
    Blend: 6-31G*
  Basis Set: (6-31G* AUX)
    Blend: CC-PVDZ-JKFIT

    Orbital Energies [Eh]
    ---------------------

    Doubly Occupied:

       1A    -77.399514     2A    -19.318009     3A    -19.318006
       4A    -19.309581     5A    -19.238763     6A    -10.359521
       7A     -6.807770     8A     -4.957050     9A     -4.956971
      10A     -4.955276    11A     -1.210346    12A     -1.146755
      13A     -1.144719    14A     -1.067912    15A     -0.818782
      16A     -0.737799    17A     -0.632544    18A     -0.626952
      19A     -0.571627    20A     -0.555593    21A     -0.542960
      22A     -0.533091    23A     -0.484904    24A     -0.461124
      25A     -0.443396    26A     -0.428655    27A     -0.400237
      28A     -0.386687    29A     -0.382975

  @DF-RKS Final Energy:  -683.31536358000881

   => Energetics <=

    Nuclear Repulsion Energy =            362.4842166809027617
    One-Electron Energy =               -1661.6931009118968632
    Two-Electron Energy =                 662.0185067781927728
    DFT Exchange-Correlation Energy =     -46.1214818716203467
    Empirical Dispersion Energy =          -0.0035042555872801
    VV10 Nonlocal Energy =                  0.0000000000000000
    Total Energy =                       -683.3153635800089205

  Dipole Moment: [D]
     X:    -1.9166      Y:    -1.4050      Z:     0.1685     Total:     2.3824

    Molecular point group: c1
  Basis Set: 6-31G*
    Blend: 6-31G*
  Basis Set: (6-31G* AUX)
    Blend: CC-PVDZ-JKFIT

  -Total Gradient:
     Atom            X                  Y                   Z
    ------   -----------------  -----------------  -----------------
       1        0.000649325134    -0.001995462044     0.000255649905
       2       -0.000906766662     0.001028698815    -0.000122134166
       3        0.000046672736    -0.000048972141    -0.000393053832
       4        0.000050722794     0.000079460854     0.000360644303
       5       -0.000383346341     0.000386981479    -0.000045253928
       6        0.000154059026    -0.000115924692     0.000001444442
       7       -0.000149588414     0.000199530730    -0.000021731235
       8       -0.000119128794    -0.000082639229     0.000094995494
       9       -0.000112067418    -0.000094855950    -0.000065733580
      10       -0.000241268589     0.000067860014     0.000247892788
      11       -0.000239475528    -0.000001542127    -0.000248452356

  **** Optimization is complete! (in 3 steps) ****
    Final optimized geometry and variables:
    Molecular point group: c1

    Geometry (in Angstrom), charge = 0, multiplicity = 1:

    P            0.419542673898     0.035762747716    -0.003810801367
    O           -0.918182549819     0.900560792235    -0.109048970751
    O            0.243659319461    -1.121635002831    -1.107834591046
    O            0.241179409466    -0.827401542624     1.342438522029
    O            1.639149133438     0.847350214145    -0.100025645258
    C           -2.196320979082     0.267113545512    -0.034655274690
    H           -2.937951569876     1.060777990514    -0.130526877293
    H           -2.317561983477    -0.239790714111     0.927319953142
    H           -2.315476278857    -0.452610985529    -0.850006935297
    H            0.848569846191    -0.960706936023    -1.843517496782
    H            0.842712682664    -0.495242616031     2.021315419463

*** Psi4 exiting successfully. Buy a developer a beer!
