 Gaussian 09, Revision A.02,
 Gaussian 09:  EM64L-G09RevA.02 11-Jun-2009

 --------------------------------------------
 #P MP2/6-311G** Sp Density=MP2 MaxDisk=100GB
 --------------------------------------------

 --------------------------------------------------------------------
 DiMethylPhosphate0H Gaussian SP Calculation on node37.bme.utexas.edu
 --------------------------------------------------------------------
 Symbolic Z-matrix:
 Charge = -1 Multiplicity = 1

                         Standard orientation:
 ---------------------------------------------------------------------
 Center     Atomic      Atomic             Coordinates (Angstroms)
 Number     Number       Type             X           Y           Z
 ---------------------------------------------------------------------
      1         15           0        0.000031    0.612185    0.000044
      2          8           0        0.949996   -0.478239    0.834052
      3          8           0       -0.949973   -0.478261   -0.834088
      4          8           0        0.831467    1.287115   -1.036970
      5          8           0       -0.831619    1.286979    1.036967
      6          6           0        1.909019   -1.164295    0.072138
      7          6           0       -1.908943   -1.164323   -0.072171
      8          1           0        1.451625   -1.685437   -0.781417
      9          1           0        2.384729   -1.908984    0.724723
     10          1           0        2.671880   -0.481335   -0.322283
     11          1           0       -2.672440   -0.481620    0.321417
     12          1           0       -1.451710   -1.684672    0.781922
     13          1           0       -2.383986   -1.909764   -0.724508
 ---------------------------------------------------------------------

 SCF Done:  E(RHF) =  -719.641767563     A.U. after   12 cycles
 E2 =    -0.1216123053D+01 EUMP2 =    -0.72085789061542D+03

 The electronic state is 1-A.
 Alpha  occ. eigenvalues --  -79.87613 -20.39158 -20.39154 -20.29713 -20.29711
 Alpha  occ. eigenvalues --  -11.13066 -11.13064  -7.39918  -5.29749  -5.29708
 Alpha  occ. eigenvalues --   -5.29684  -1.23798  -1.18726  -1.10659  -1.06856
 Alpha  occ. eigenvalues --   -0.78517  -0.77554  -0.58815  -0.52291  -0.49590
 Alpha  occ. eigenvalues --   -0.47870  -0.46298  -0.45667  -0.42293  -0.37048
 Alpha  occ. eigenvalues --   -0.35736  -0.33066  -0.30117  -0.29108  -0.28532
 Alpha  occ. eigenvalues --   -0.26333  -0.25186  -0.23661
 Alpha virt. eigenvalues --    0.29020   0.30633   0.34848   0.35539   0.37371
 Alpha virt. eigenvalues --    0.37849   0.40985   0.43230   0.44648   0.47297
 Alpha virt. eigenvalues --    0.50951   0.56489   0.59454   0.59954   0.62914

 Mulliken atomic charges:
              1
     1  P    1.226549
     2  O   -0.566691
     3  O   -0.566724
     4  O   -0.691634
     5  O   -0.691631
     6  C   -0.060108
     7  C   -0.060062
     8  H    0.069380
     9  H    0.049744
    10  H    0.086075
    11  H    0.086016
    12  H    0.069384
    13  H    0.049702
 Sum of Mulliken atomic charges =  -1.00000

 Dipole moment (field-independent basis, Debye):
    X=              0.0014    Y=             -5.2420    Z=              0.0005  Tot=              5.2420
 Quadrupole moment (field-independent basis, Debye-Ang):
   XX=            -54.0207   YY=            -59.7218   ZZ=            -61.2700
   XY=             -0.0006   XZ=              2.5297   YZ=              0.0000

 Normal termination of Gaussian 09 at Mon Sep 21 14:41:22 2020.
