 Gaussian 09, Revision A.02,
 Gaussian 09:  EM64L-G09RevA.02 11-Jun-2009

 --------------------------------------------------------------------
 #P MP2/aug-cc-pVTZ Sp Density=MP2 SCF=Save MaxDisk=100GB Pop=NBORead
 --------------------------------------------------------------------

 --------------------------------------------------------------------
 DiMethylPhosphate0H Gaussian SP Calculation on node37.bme.utexas.edu
 --------------------------------------------------------------------
 Symbolic Z-matrix:
 Charge = -1 Multiplicity = 1

                         Standard orientation:
 ---------------------------------------------------------------------
 Center     Atomic      Atomic             Coordinates (Angstroms)
 Number     Number       Type             X           Y           Z
 ---------------------------------------------------------------------
      1         15           0        0.000031    0.612185    0.000044
      2          8           0        0.949996   -0.478239    0.834052
      3          8           0       -0.949973   -0.478261   -0.834088
      4          8           0        0.831467    1.287115   -1.036970
      5          8           0       -0.831619    1.286979    1.036967
      6          6           0        1.909019   -1.164295    0.072138
      7          6           0       -1.908943   -1.164323   -0.072171
      8          1           0        1.451625   -1.685437   -0.781417
      9          1           0        2.384729   -1.908984    0.724723
     10          1           0        2.671880   -0.481335   -0.322283
     11          1           0       -2.672440   -0.481620    0.321417
     12          1           0       -1.451710   -1.684672    0.781922
     13          1           0       -2.383986   -1.909764   -0.724508
 ---------------------------------------------------------------------

 SCF Done:  E(RHF) =  -719.737069616     A.U. after   12 cycles
 E2 =    -0.1495743777D+01 EUMP2 =    -0.72123281339304D+03

 The electronic state is 1-A.
 Alpha  occ. eigenvalues --  -79.87719 -20.39907 -20.39904 -20.30875 -20.30874
 Alpha  occ. eigenvalues --  -11.13128 -11.13126  -7.39385  -5.29261  -5.29181
 Alpha  occ. eigenvalues --   -5.29059  -1.23841  -1.18940  -1.10906  -1.07201
 Alpha  occ. eigenvalues --   -0.78521  -0.77599  -0.58886  -0.52406  -0.49794
 Alpha  occ. eigenvalues --   -0.48011  -0.46468  -0.45832  -0.42682  -0.37359
 Alpha  occ. eigenvalues --   -0.35904  -0.33556  -0.30476  -0.29522  -0.29175
 Alpha  occ. eigenvalues --   -0.27002  -0.26006  -0.24620
 Alpha virt. eigenvalues --    0.11520   0.12158   0.13466   0.14059   0.14659
 Alpha virt. eigenvalues --    0.15301   0.17416   0.19881   0.20385   0.21238
 Alpha virt. eigenvalues --    0.22328   0.22639   0.22974   0.23456   0.25202

 Mulliken atomic charges:
              1
     1  P    1.357752
     2  O   -0.446078
     3  O   -0.446164
     4  O   -0.908051
     5  O   -0.908069
     6  C   -0.873906
     7  C   -0.873822
     8  H    0.387021
     9  H    0.320110
    10  H    0.342081
    11  H    0.341961
    12  H    0.387122
    13  H    0.320042
 Sum of Mulliken atomic charges =  -1.00000

 Dipole moment (field-independent basis, Debye):
    X=              0.0013    Y=             -5.2875    Z=              0.0004  Tot=              5.2875
 Quadrupole moment (field-independent basis, Debye-Ang):
   XX=            -55.1166   YY=            -60.7234   ZZ=            -62.0088
   XY=             -0.0007   XZ=              2.9265   YZ=              0.0000

 Summary of Natural Population Analysis:

                                       Natural Population
                Natural  -----------------------------------------------
    Atom  No    Charge         Core      Valence    Rydberg      Total
 -----------------------------------------------------------------------
      P    1    2.46395      9.99825     2.32089    0.21692    12.53605
      O    2   -0.84574      1.99965     6.74111    0.10498     8.84574
      O    3   -0.84575      1.99965     6.74111    0.10499     8.84575
      O    4   -1.14822      1.99963     7.02868    0.11990     9.14822
      O    5   -1.14822      1.99963     7.02868    0.11990     9.14822
      C    6   -0.19717      1.99920     4.13083    0.06715     6.19717
      C    7   -0.19715      1.99920     4.13080    0.06715     6.19715
      H    8    0.15354      0.00000     0.83568    0.01077     0.84646
      H    9    0.14046      0.00000     0.84992    0.00962     0.85954
      H   10    0.16518      0.00000     0.82551    0.00930     0.83482
      H   11    0.16513      0.00000     0.82557    0.00930     0.83487
      H   12    0.15356      0.00000     0.83567    0.01077     0.84644
      H   13    0.14044      0.00000     0.84994    0.00962     0.85956
 =======================================================================
   * Total *   -1.00000     21.99520    43.14441    0.86040    66.00000

 Normal termination of Gaussian 09 at Mon Sep 21 15:25:41 2020.
