                               Psi4 1.3.2 release

  ==> Input File <==

--------------------------------------------------------------------------
molecule {
0 1
 O    0.670729   -0.055588   -0.017893
 C   -0.744458   -0.011380   -0.005416
 H   -1.112693   -0.768327    0.700254
 H   -1.109159   -0.165893   -1.029865
 H   -1.059224    0.983899    0.340554
 H    1.008414    0.795874    0.279293
}
set {
 e_convergence 10
 d_convergence 10
}
memory 100GB
set_num_threads(8)
psi4_io.set_default_path("/scratch/bdw2292/Psi4-methanol")
set freeze_core True
E, wfn = energy('wb97x-d/6-311+G*',return_wfn=True)
oeprop(wfn,"WIBERG_LOWDIN_INDICES")
clean()
--------------------------------------------------------------------------

    Molecular point group: c1

    Geometry (in Angstrom), charge = 0, multiplicity = 1:

       Center              X                  Y                   Z               Mass
    ------------   -----------------  -----------------  -----------------  -----------------
         O            0.686206588264    -0.050170068604    -0.016060691633    15.994914619570
         C           -0.728980411736    -0.005962068604    -0.003583691633    12.000000000000
         H           -1.097215411736    -0.762909068604     0.702086308367     1.007825032230
         H           -1.093681411736    -0.160475068604    -1.028032691633     1.007825032230
         H           -1.043746411736     0.989316931396     0.342386308367     1.007825032230
         H            1.023891588264     0.801291931396     0.281125308367     1.007825032230

  Charge       = 0
  Multiplicity = 1
  Basis Set: 6-311+G*
    Blend: 6-311+G*
  Basis Set: (6-311+G* AUX)
    Blend: HEAVY-AUG-CC-PVTZ-JKFIT

    Orbital Energies [Eh]
    ---------------------

    Doubly Occupied:

       1A    -19.245439     2A    -10.325530     3A     -1.127789
       4A     -0.781862     5A     -0.602866     6A     -0.535528
       7A     -0.516511     8A     -0.420831     9A     -0.362140

  @DF-RKS Final Energy:  -115.70924680803985

   => Energetics <=

    Nuclear Repulsion Energy =             40.3574875556172401
    One-Electron Energy =                -237.0727469466988850
    Two-Electron Energy =                  91.6712509452848963
    DFT Exchange-Correlation Energy =     -10.6644429523976179
    Empirical Dispersion Energy =          -0.0007954098454782
    VV10 Nonlocal Energy =                  0.0000000000000000
    Total Energy =                       -115.7092468080398504

  Dipole Moment: [D]
     X:    -1.0725      Y:     1.6996      Z:     0.5896     Total:     2.0944

*** Psi4 exiting successfully. Buy a developer a beer!
