                               Psi4 1.3.2 release

  ==> Input File <==

--------------------------------------------------------------------------
molecule {
0 1
 O    0.673292   -0.047332   -0.020557
 C   -0.741853   -0.019120   -0.013121
 H   -1.106115   -0.778345    0.692353
 H   -1.099943   -0.179440   -1.039025
 H   -1.065079    0.974471    0.329638
 H    0.993833    0.544571    0.668178
}
set {
 e_convergence 10
 d_convergence 10
}
memory 100GB
set_num_threads(8)
psi4_io.set_default_path("/scratch/bdw2292/Psi4-methanol")
set freeze_core True
E, wfn = energy('wb97x-d/6-311+G*',return_wfn=True)
oeprop(wfn,"WIBERG_LOWDIN_INDICES")
clean()
--------------------------------------------------------------------------

    Molecular point group: c1

    Geometry (in Angstrom), charge = 0, multiplicity = 1:

       Center              X                  Y                   Z               Mass
    ------------   -----------------  -----------------  -----------------  -----------------
         O            0.686659546759    -0.034190814007    -0.025864519614    15.994914619570
         C           -0.728485453241    -0.005978814007    -0.018428519614    12.000000000000
         H           -1.092747453241    -0.765203814007     0.687045480386     1.007825032230
         H           -1.086575453241    -0.166298814007    -1.044332519614     1.007825032230
         H           -1.051711453241     0.987612185993     0.324330480386     1.007825032230
         H            1.007200546759     0.557712185993     0.662870480386     1.007825032230

  Charge       = 0
  Multiplicity = 1
  Basis Set: 6-311+G*
    Blend: 6-311+G*
  Basis Set: (6-311+G* AUX)
    Blend: HEAVY-AUG-CC-PVTZ-JKFIT

    Orbital Energies [Eh]
    ---------------------

    Doubly Occupied:

       1A    -19.245676     2A    -10.325631     3A     -1.128077
       4A     -0.781868     5A     -0.601981     6A     -0.535505
       7A     -0.517520     8A     -0.421829     9A     -0.361660

  @DF-RKS Final Energy:  -115.71000828236055

   => Energetics <=

    Nuclear Repulsion Energy =             40.3680818814752129
    One-Electron Energy =                -237.0928945249321487
    Two-Electron Energy =                  91.6800940192257201
    DFT Exchange-Correlation Energy =     -10.6644736935181772
    Empirical Dispersion Energy =          -0.0008159646111446
    VV10 Nonlocal Energy =                  0.0000000000000000
    Total Energy =                       -115.7100082823605476

  Dipole Moment: [D]
     X:    -1.1112      Y:     1.1834      Z:     1.2674     Total:     2.0595

*** Psi4 exiting successfully. Buy a developer a beer!
