                               Psi4 1.3.2 release

  ==> Input File <==

--------------------------------------------------------------------------
molecule {
0 1
 O    0.673501   -0.023448   -0.035036
 C   -0.741240    0.003313   -0.027158
 H   -1.109684   -0.757531    0.674547
 H   -1.100395   -0.153041   -1.053221
 H   -1.056954    0.997848    0.320086
 H    0.983861    0.140527    0.861967
}
set {
 e_convergence 10
 d_convergence 10
}
memory 100GB
set_num_threads(8)
psi4_io.set_default_path("/scratch/bdw2292/Psi4-methanol")
set freeze_core True
E, wfn = energy('wb97x-d/6-311+G*',return_wfn=True)
oeprop(wfn,"WIBERG_LOWDIN_INDICES")
clean()
--------------------------------------------------------------------------

    Molecular point group: c1

    Geometry (in Angstrom), charge = 0, multiplicity = 1:

       Center              X                  Y                   Z               Mass
    ------------   -----------------  -----------------  -----------------  -----------------
         O            0.686719137286    -0.020147354169    -0.032643323793    15.994914619570
         C           -0.728021862714     0.006613645831    -0.024765323793    12.000000000000
         H           -1.096465862714    -0.754230354169     0.676939676207     1.007825032230
         H           -1.087176862714    -0.149740354169    -1.050828323793     1.007825032230
         H           -1.043735862714     1.001148645831     0.322478676207     1.007825032230
         H            0.997079137286     0.143827645831     0.864359676207     1.007825032230

  Charge       = 0
  Multiplicity = 1
  Basis Set: 6-311+G*
    Blend: 6-311+G*
  Basis Set: (6-311+G* AUX)
    Blend: HEAVY-AUG-CC-PVTZ-JKFIT

    Orbital Energies [Eh]
    ---------------------

    Doubly Occupied:

       1A    -19.245916     2A    -10.325726     3A     -1.128290
       4A     -0.781902     5A     -0.601200     6A     -0.533914
       7A     -0.519654     8A     -0.423627     9A     -0.360531

  @DF-RKS Final Energy:  -115.71075585602776

   => Energetics <=

    Nuclear Repulsion Energy =             40.3756757945930147
    One-Electron Energy =                -237.1075637760404788
    Two-Electron Energy =                  91.6863689991433404
    DFT Exchange-Correlation Energy =     -10.6643984623347912
    Empirical Dispersion Energy =          -0.0008384113888370
    VV10 Nonlocal Energy =                  0.0000000000000000
    Total Energy =                       -115.7107558560277596

  Dipole Moment: [D]
     X:    -1.1372      Y:     0.3442      Z:     1.6357     Total:     2.0217

*** Psi4 exiting successfully. Buy a developer a beer!
