                               Psi4 1.3.2 release

  ==> Input File <==

--------------------------------------------------------------------------
molecule {
0 1
 O    0.672418    0.010387    0.006579
 C   -0.742784    0.038712    0.013766
 H   -1.107597   -0.722189    0.717133
 H   -1.101345   -0.118877   -1.012323
 H   -1.065647    1.031700    0.358955
 H    0.993256    0.600467    0.696790
}
set optking {
  frozen_dihedral = ("
  ")
}
set {
  geom_maxiter 3
  g_convergence GAU_LOOSE
}
memory 100GB
set_num_threads(8)
psi4_io.set_default_path("/scratch/bdw2292/Psi4-methanol")
for _ in range(1):
  try:
    optimize('wb97x-d/6-31G*')
    break
  except OptimizationConvergenceError:
    try:
      set opt_coordinates cartesian
      optimize('wb97x-d/6-31G*')
      break
    except OptimizationConvergenceError:
      pass
clean()
--------------------------------------------------------------------------

    Molecular point group: c1
  Charge       = 0
  Multiplicity = 1
  Basis Set: 6-31G*
    Blend: 6-31G*
  Basis Set: (6-31G* AUX)
    Blend: CC-PVDZ-JKFIT
  @DF-RKS Final Energy:  -115.67452969068539
    Total Energy =                       -115.6745296906853895
    Molecular point group: c1
  Basis Set: 6-31G*
    Blend: 6-31G*
  Basis Set: (6-31G* AUX)
    Blend: CC-PVDZ-JKFIT
  Basis Set: 6-31G*
    Blend: 6-31G*
  Basis Set: (6-31G* AUX)
    Blend: CC-PVDZ-JKFIT
  @DF-RKS Final Energy:  -115.67634669159737
    Total Energy =                       -115.6763466915973737
  Basis Set: 6-31G*
    Blend: 6-31G*
  Basis Set: (6-31G* AUX)
    Blend: CC-PVDZ-JKFIT
  Basis Set: 6-31G*
    Blend: 6-31G*
  @DF-RKS Final Energy:  -115.67672324836690
    Total Energy =                       -115.6767232483668977
  @DF-RKS Final Energy:  -115.67452969068526
    Total Energy =                       -115.6745296906852616
  Basis Set: (6-31G* AUX)
    Blend: CC-PVDZ-JKFIT
  Basis Set: 6-31G*
    Blend: 6-31G*
  Basis Set: (6-31G* AUX)
    Blend: CC-PVDZ-JKFIT
  @DF-RKS Final Energy:  -115.67623976267892
    Total Energy =                       -115.6762397626789181
  Basis Set: 6-31G*
    Blend: 6-31G*
  Basis Set: (6-31G* AUX)
    Blend: CC-PVDZ-JKFIT
  Charge       = 0
  Multiplicity = 1
  Basis Set: 6-31G*
    Blend: 6-31G*
  Basis Set: (6-31G* AUX)
    Blend: CC-PVDZ-JKFIT

    Orbital Energies [Eh]
    ---------------------

    Doubly Occupied:

       1A    -19.261184     2A    -10.333759     3A     -1.111167
       4A     -0.774390     5A     -0.590077     6A     -0.521068
       7A     -0.505154     8A     -0.412951     9A     -0.347585

  @DF-RKS Final Energy:  -115.67623976053801

   => Energetics <=

    Nuclear Repulsion Energy =             40.2552646477329930
    One-Electron Energy =                -236.9308969950602091
    Two-Electron Energy =                  91.6570204840709124
    DFT Exchange-Correlation Energy =     -10.6568048349413438
    Empirical Dispersion Energy =          -0.0008230623403555
    VV10 Nonlocal Energy =                  0.0000000000000000
    Total Energy =                       -115.6762397605380102

  Dipole Moment: [D]
     X:    -0.9084      Y:     1.0003      Z:     1.2084     Total:     1.8128

    Molecular point group: c1
  Basis Set: 6-31G*
    Blend: 6-31G*
  Basis Set: (6-31G* AUX)
    Blend: CC-PVDZ-JKFIT

  -Total Gradient:
     Atom            X                  Y                   Z
    ------   -----------------  -----------------  -----------------
       1        0.003701952309    -0.002060399700     0.001746901200
       2       -0.005221839016    -0.002241381090    -0.001195948198
       3        0.001233748547     0.000025859883     0.000107578135
       4       -0.000310526803     0.001237338188    -0.000882763314
       5       -0.000075620629     0.001226673646     0.000865450603
       6        0.000490458103     0.001820535806    -0.000634554051

    Molecular point group: c1

    Geometry (in Angstrom), charge = 0, multiplicity = 1:

    O            0.691058251569    -0.031420620669    -0.041994966806
    C           -0.727129224280    -0.002526828670     0.000644489370
    H           -1.124711146718    -0.772202574140     0.676316345911
    H           -1.092842579593    -0.194601288009    -1.012349906314
    H           -1.114988240329     0.976906097194     0.319616221701
    H            1.022749130396     0.518652332367     0.675234112287

*** Psi4 exiting successfully. Buy a developer a beer!
