                               Psi4 1.3.2 release

  ==> Input File <==

--------------------------------------------------------------------------
molecule {
0 1
 O    0.672301    0.010048    0.005612
 C   -0.742782    0.035093    0.014062
 H   -1.117368   -0.725012    0.713493
 H   -1.102547   -0.119906   -1.011989
 H   -1.054274    1.030092    0.363158
 H    0.976470   -0.298416    0.865764
}
set optking {
  frozen_dihedral = ("
  ")
}
set {
  geom_maxiter 3
  g_convergence GAU_LOOSE
}
memory 100GB
set_num_threads(8)
psi4_io.set_default_path("/scratch/bdw2292/Psi4-methanol")
for _ in range(1):
  try:
    optimize('wb97x-d/6-31G*')
    break
  except OptimizationConvergenceError:
    try:
      set opt_coordinates cartesian
      optimize('wb97x-d/6-31G*')
      break
    except OptimizationConvergenceError:
      pass
clean()
--------------------------------------------------------------------------

    Molecular point group: c1
  Charge       = 0
  Multiplicity = 1
  Basis Set: 6-31G*
    Blend: 6-31G*
  Basis Set: (6-31G* AUX)
    Blend: CC-PVDZ-JKFIT
  @DF-RKS Final Energy:  -115.67451677044869
    Total Energy =                       -115.6745167704486903
    Molecular point group: c1
  Basis Set: 6-31G*
    Blend: 6-31G*
  Basis Set: (6-31G* AUX)
    Blend: CC-PVDZ-JKFIT
  Basis Set: 6-31G*
    Blend: 6-31G*
  Basis Set: (6-31G* AUX)
    Blend: CC-PVDZ-JKFIT
  @DF-RKS Final Energy:  -115.67634549675755
    Total Energy =                       -115.6763454967575626
  Basis Set: 6-31G*
    Blend: 6-31G*
  Basis Set: (6-31G* AUX)
    Blend: CC-PVDZ-JKFIT
  Basis Set: 6-31G*
    Blend: 6-31G*
  @DF-RKS Final Energy:  -115.67699631657690
    Total Energy =                       -115.6769963165769042
  @DF-RKS Final Energy:  -115.67451677044872
    Total Energy =                       -115.6745167704487187
  Basis Set: (6-31G* AUX)
    Blend: CC-PVDZ-JKFIT
  Basis Set: 6-31G*
    Blend: 6-31G*
  Basis Set: (6-31G* AUX)
    Blend: CC-PVDZ-JKFIT
  @DF-RKS Final Energy:  -115.67623677203248
    Total Energy =                       -115.6762367720324818
  Basis Set: 6-31G*
    Blend: 6-31G*
  Basis Set: (6-31G* AUX)
    Blend: CC-PVDZ-JKFIT
  Charge       = 0
  Multiplicity = 1
  Basis Set: 6-31G*
    Blend: 6-31G*
  Basis Set: (6-31G* AUX)
    Blend: CC-PVDZ-JKFIT

    Orbital Energies [Eh]
    ---------------------

    Doubly Occupied:

       1A    -19.261165     2A    -10.333743     3A     -1.111096
       4A     -0.774444     5A     -0.590164     6A     -0.520092
       7A     -0.505868     8A     -0.413437     9A     -0.347310

  @DF-RKS Final Energy:  -115.67623677203210

   => Energetics <=

    Nuclear Repulsion Energy =             40.2530916708476383
    One-Electron Energy =                -236.9265197594713754
    Two-Electron Energy =                  91.6549052584582000
    DFT Exchange-Correlation Energy =     -10.6568922103709749
    Empirical Dispersion Energy =          -0.0008217314956240
    VV10 Nonlocal Energy =                  0.0000000000000000
    Total Energy =                       -115.6762367720321123

  Dipole Moment: [D]
     X:    -0.9440      Y:    -0.4366      Z:     1.4846     Total:     1.8127

    Molecular point group: c1
  Basis Set: 6-31G*
    Blend: 6-31G*
  Basis Set: (6-31G* AUX)
    Blend: CC-PVDZ-JKFIT

  -Total Gradient:
     Atom            X                  Y                   Z
    ------   -----------------  -----------------  -----------------
       1        0.004082189333     0.002176655083     0.000973356999
       2       -0.005682878658    -0.000853112904    -0.001625248942
       3        0.000723977563    -0.000015041235     0.001584891604
       4       -0.000143709168     0.000044481246    -0.000409061639
       5        0.000530705665     0.000598530037    -0.000468539516
       6        0.000299920611    -0.001932848533    -0.000039486124

    Molecular point group: c1

    Geometry (in Angstrom), charge = 0, multiplicity = 1:

    O            0.691283591840    -0.022718408386    -0.046060762652
    C           -0.726263804443     0.039936419829    -0.004934775047
    H           -1.156130179351    -0.728275887253     0.653157402300
    H           -1.093593749665    -0.125051211751    -1.021633481667
    H           -1.077357903040     1.026134999947     0.333069272952
    H            1.003408276444    -0.287766382638     0.825182056123

*** Psi4 exiting successfully. Buy a developer a beer!
