                               Psi4 1.3.2 release

  ==> Input File <==

--------------------------------------------------------------------------
molecule {
0 1
 O    0.672795   -0.006283    0.029156
 C   -0.742196    0.016521    0.031975
 H   -1.106240   -0.743911    0.736139
 H   -1.111650   -0.141704   -0.990555
 H   -1.053820    1.012518    0.377544
 H    0.965257   -0.608682   -0.662994
}
set {
 e_convergence 10
 d_convergence 10
}
memory 100GB
set_num_threads(8)
psi4_io.set_default_path("/scratch/bdw2292/Psi4-methanol")
set freeze_core True
E, wfn = energy('wb97x-d/6-311+G*',return_wfn=True)
oeprop(wfn,"WIBERG_LOWDIN_INDICES")
clean()
--------------------------------------------------------------------------

    Molecular point group: c1

    Geometry (in Angstrom), charge = 0, multiplicity = 1:

       Center              X                  Y                   Z               Mass
    ------------   -----------------  -----------------  -----------------  -----------------
         O            0.687456566822     0.005825611267     0.019602661768    15.994914619570
         C           -0.727534433178     0.028629611267     0.022421661768    12.000000000000
         H           -1.091578433178    -0.731802388733     0.726585661768     1.007825032230
         H           -1.096988433178    -0.129595388733    -1.000108338232     1.007825032230
         H           -1.039158433178     1.024626611267     0.367990661768     1.007825032230
         H            0.979918566822    -0.596573388733    -0.672547338232     1.007825032230

  Charge       = 0
  Multiplicity = 1
  Basis Set: 6-311+G*
    Blend: 6-311+G*
  Basis Set: (6-311+G* AUX)
    Blend: HEAVY-AUG-CC-PVTZ-JKFIT

    Orbital Energies [Eh]
    ---------------------

    Doubly Occupied:

       1A    -19.245961     2A    -10.325221     3A     -1.128188
       4A     -0.782001     5A     -0.601062     6A     -0.535334
       7A     -0.517564     8A     -0.422438     9A     -0.361690

  @DF-RKS Final Energy:  -115.71042488127611

   => Energetics <=

    Nuclear Repulsion Energy =             40.3699697689011785
    One-Electron Energy =                -237.0981171531933001
    Two-Electron Energy =                  91.6829968537208231
    DFT Exchange-Correlation Energy =     -10.6644563042656042
    Empirical Dispersion Energy =          -0.0008180464392058
    VV10 Nonlocal Energy =                  0.0000000000000000
    Total Energy =                       -115.7104248812761114

  Dipole Moment: [D]
     X:    -1.1590      Y:    -1.0496      Z:    -1.3085     Total:     2.0389

*** Psi4 exiting successfully. Buy a developer a beer!
