                               Psi4 1.3.2 release

  ==> Input File <==

--------------------------------------------------------------------------
molecule {
0 1
 O    0.672717    0.012445    0.004286
 C   -0.742467    0.037373    0.009533
 H   -1.103739   -0.721194    0.716868
 H   -1.114694   -0.124428   -1.011462
 H   -1.055496    1.033926    0.352650
 H    0.979578    0.304477   -0.860676
}
set optking {
  frozen_dihedral = ("
  ")
}
set {
  geom_maxiter 3
  g_convergence GAU_LOOSE
}
memory 100GB
set_num_threads(8)
psi4_io.set_default_path("/scratch/bdw2292/Psi4-methanol")
for _ in range(1):
  try:
    optimize('wb97x-d/6-31G*')
    break
  except OptimizationConvergenceError:
    try:
      set opt_coordinates cartesian
      optimize('wb97x-d/6-31G*')
      break
    except OptimizationConvergenceError:
      pass
clean()
--------------------------------------------------------------------------

    Molecular point group: c1
  Charge       = 0
  Multiplicity = 1
  Basis Set: 6-31G*
    Blend: 6-31G*
  Basis Set: (6-31G* AUX)
    Blend: CC-PVDZ-JKFIT
  @DF-RKS Final Energy:  -115.67453416025496
    Total Energy =                       -115.6745341602549644
    Molecular point group: c1
  Basis Set: 6-31G*
    Blend: 6-31G*
  Basis Set: (6-31G* AUX)
    Blend: CC-PVDZ-JKFIT
  Basis Set: 6-31G*
    Blend: 6-31G*
  Basis Set: (6-31G* AUX)
    Blend: CC-PVDZ-JKFIT
  @DF-RKS Final Energy:  -115.67635132379421
    Total Energy =                       -115.6763513237942078
  Basis Set: 6-31G*
    Blend: 6-31G*
  Basis Set: (6-31G* AUX)
    Blend: CC-PVDZ-JKFIT
  Basis Set: 6-31G*
    Blend: 6-31G*
  @DF-RKS Final Energy:  -115.67667352232820
    Total Energy =                       -115.6766735223282012
  @DF-RKS Final Energy:  -115.67453416025488
    Total Energy =                       -115.6745341602548791
  Basis Set: (6-31G* AUX)
    Blend: CC-PVDZ-JKFIT
  Basis Set: 6-31G*
    Blend: 6-31G*
  Basis Set: (6-31G* AUX)
    Blend: CC-PVDZ-JKFIT
  @DF-RKS Final Energy:  -115.67623727108071
    Total Energy =                       -115.6762372710807085
  Basis Set: 6-31G*
    Blend: 6-31G*
  Basis Set: (6-31G* AUX)
    Blend: CC-PVDZ-JKFIT
  Charge       = 0
  Multiplicity = 1
  Basis Set: 6-31G*
    Blend: 6-31G*
  Basis Set: (6-31G* AUX)
    Blend: CC-PVDZ-JKFIT

    Orbital Energies [Eh]
    ---------------------

    Doubly Occupied:

       1A    -19.261160     2A    -10.333737     3A     -1.111088
       4A     -0.774450     5A     -0.590169     6A     -0.520092
       7A     -0.505867     8A     -0.413421     9A     -0.347307

  @DF-RKS Final Energy:  -115.67623727266331

   => Energetics <=

    Nuclear Repulsion Energy =             40.2533274396578662
    One-Electron Energy =                -236.9270403410513097
    Two-Electron Energy =                  91.6552017620697939
    DFT Exchange-Correlation Energy =     -10.6569044098128458
    Empirical Dispersion Energy =          -0.0008217235267951
    VV10 Nonlocal Energy =                  0.0000000000000000
    Total Energy =                       -115.6762372726633146

  Dipole Moment: [D]
     X:    -0.9400      Y:     0.5790      Z:    -1.4374     Total:     1.8125

    Molecular point group: c1
  Basis Set: 6-31G*
    Blend: 6-31G*
  Basis Set: (6-31G* AUX)
    Blend: CC-PVDZ-JKFIT

  -Total Gradient:
     Atom            X                  Y                   Z
    ------   -----------------  -----------------  -----------------
       1        0.004053012792     0.002309418970     0.000595192113
       2       -0.005695297367    -0.001663862909     0.000724906849
       3       -0.000134248706    -0.000221945403     0.000352211994
       4        0.000729416067     0.000976099425    -0.001238122459
       5        0.000529453392     0.000164706408     0.000735631196
       6        0.000327651857    -0.001540264361    -0.001171300156

    Molecular point group: c1

    Geometry (in Angstrom), charge = 0, multiplicity = 1:

    O            0.691213853126    -0.046304643067     0.023801405774
    C           -0.726338625150     0.028155395690     0.026767995708
    H           -1.095229941053    -0.732282086779     0.720661020223
    H           -1.153647474037    -0.165847223535    -0.967086695178
    H           -1.078503201178     1.011121063804     0.372906993525
    H            1.005704742006     0.286655061378    -0.822948839446

*** Psi4 exiting successfully. Buy a developer a beer!
