                               Psi4 1.3.2 release

  ==> Input File <==

--------------------------------------------------------------------------
molecule {
0 1
 O    0.672169    0.010251    0.005982
 C   -0.742610    0.036830    0.013929
 H   -1.111175   -0.724097    0.715604
 H   -1.101794   -0.119388   -1.012081
 H   -1.058647    1.031187    0.361325
 H    0.982858    0.174117    0.902840
}
set optking {
  frozen_dihedral = ("
  ")
}
set {
  geom_maxiter 3
  g_convergence GAU_LOOSE
}
memory 100GB
set_num_threads(8)
psi4_io.set_default_path("/scratch/bdw2292/Psi4-methanol")
for _ in range(1):
  try:
    optimize('wb97x-d/6-31G*')
    break
  except OptimizationConvergenceError:
    try:
      set opt_coordinates cartesian
      optimize('wb97x-d/6-31G*')
      break
    except OptimizationConvergenceError:
      pass
clean()
--------------------------------------------------------------------------

    Molecular point group: c1
  Charge       = 0
  Multiplicity = 1
  Basis Set: 6-31G*
    Blend: 6-31G*
  Basis Set: (6-31G* AUX)
    Blend: CC-PVDZ-JKFIT
  @DF-RKS Final Energy:  -115.67535442363953
    Total Energy =                       -115.6753544236395328
    Molecular point group: c1
  Basis Set: 6-31G*
    Blend: 6-31G*
  Basis Set: (6-31G* AUX)
    Blend: CC-PVDZ-JKFIT
  Basis Set: 6-31G*
    Blend: 6-31G*
  Basis Set: (6-31G* AUX)
    Blend: CC-PVDZ-JKFIT
  @DF-RKS Final Energy:  -115.67698180777752
    Total Energy =                       -115.6769818077775085
  Basis Set: 6-31G*
    Blend: 6-31G*
  Basis Set: (6-31G* AUX)
    Blend: CC-PVDZ-JKFIT
  Charge       = 0
  Multiplicity = 1
  Basis Set: 6-31G*
    Blend: 6-31G*
  Basis Set: (6-31G* AUX)
    Blend: CC-PVDZ-JKFIT

    Orbital Energies [Eh]
    ---------------------

    Doubly Occupied:

       1A    -19.262579     2A    -10.333159     3A     -1.113660
       4A     -0.774523     5A     -0.591239     6A     -0.521391
       7A     -0.505424     8A     -0.413882     9A     -0.348649

  @DF-RKS Final Energy:  -115.67717468513759

   => Energetics <=

    Nuclear Repulsion Energy =             40.3456768193820565
    One-Electron Energy =                -237.0980918474637349
    Two-Electron Energy =                  91.7346529988391808
    DFT Exchange-Correlation Energy =     -10.6585749249680841
    Empirical Dispersion Energy =          -0.0008377309270017
    VV10 Nonlocal Energy =                  0.0000000000000000
    Total Energy =                       -115.6771746851375866

  Dipole Moment: [D]
     X:    -0.8950      Y:     0.3080      Z:     1.4810     Total:     1.7576

    Molecular point group: c1
  Basis Set: 6-31G*
    Blend: 6-31G*
  Basis Set: (6-31G* AUX)
    Blend: CC-PVDZ-JKFIT

  -Total Gradient:
     Atom            X                  Y                   Z
    ------   -----------------  -----------------  -----------------
       1        0.002118506583    -0.000193386429    -0.000342602692
       2       -0.002342366349    -0.000437669272     0.000004982567
       3        0.000077912740     0.000348804198    -0.000102813802
       4        0.000170876768     0.000177952853     0.000226915686
       5       -0.000262700673     0.000064449716     0.000036765996
       6       -0.000022776241     0.000039893359     0.000157286362

  **** Optimization is complete! (in 3 steps) ****
    Final optimized geometry and variables:
    Molecular point group: c1

    Geometry (in Angstrom), charge = 0, multiplicity = 1:

    O            0.688703570897    -0.027800588280    -0.046652267666
    C           -0.723456018007     0.018863962812    -0.004348873495
    H           -1.151367660211    -0.753435340737     0.650935056841
    H           -1.074460482065    -0.163615845868    -1.022065197632
    H           -1.104721725568     0.999510462560     0.317912279270
    H            1.014391284811     0.134146260915     0.845404495645

*** Psi4 exiting successfully. Buy a developer a beer!
