                               Psi4 1.3.2 release

  ==> Input File <==

--------------------------------------------------------------------------
molecule {
0 1
 O    0.672226    0.009121    0.003552
 C   -0.742797    0.034323    0.012709
 H   -1.116712   -0.726392    0.711780
 H   -1.105541   -0.118291   -1.012750
 H   -1.051759    1.029078    0.364269
 H    0.961284   -0.894638    0.168440
}
set optking {
  frozen_dihedral = ("
  ")
}
set {
  geom_maxiter 3
  g_convergence GAU_LOOSE
}
memory 100GB
set_num_threads(8)
psi4_io.set_default_path("/scratch/bdw2292/Psi4-methanol")
for _ in range(1):
  try:
    optimize('wb97x-d/6-31G*')
    break
  except OptimizationConvergenceError:
    try:
      set opt_coordinates cartesian
      optimize('wb97x-d/6-31G*')
      break
    except OptimizationConvergenceError:
      pass
clean()
--------------------------------------------------------------------------

    Molecular point group: c1
  Charge       = 0
  Multiplicity = 1
  Basis Set: 6-31G*
    Blend: 6-31G*
  Basis Set: (6-31G* AUX)
    Blend: CC-PVDZ-JKFIT
  @DF-RKS Final Energy:  -115.67498559876900
    Total Energy =                       -115.6749855987689983
    Molecular point group: c1
  Basis Set: 6-31G*
    Blend: 6-31G*
  Basis Set: (6-31G* AUX)
    Blend: CC-PVDZ-JKFIT
  Basis Set: 6-31G*
    Blend: 6-31G*
  Basis Set: (6-31G* AUX)
    Blend: CC-PVDZ-JKFIT
  @DF-RKS Final Energy:  -115.67655485714209
    Total Energy =                       -115.6765548571420936
  Basis Set: 6-31G*
    Blend: 6-31G*
  Basis Set: (6-31G* AUX)
    Blend: CC-PVDZ-JKFIT
  Basis Set: 6-31G*
    Blend: 6-31G*
  @DF-RKS Final Energy:  -115.67702732588522
    Total Energy =                       -115.6770273258852058
  @DF-RKS Final Energy:  -115.67498559876901
    Total Energy =                       -115.6749855987690125
  Basis Set: (6-31G* AUX)
    Blend: CC-PVDZ-JKFIT
  Basis Set: 6-31G*
    Blend: 6-31G*
  Basis Set: (6-31G* AUX)
    Blend: CC-PVDZ-JKFIT
  @DF-RKS Final Energy:  -115.67627852357971
    Total Energy =                       -115.6762785235797111
  Basis Set: 6-31G*
    Blend: 6-31G*
  Basis Set: (6-31G* AUX)
    Blend: CC-PVDZ-JKFIT
  Charge       = 0
  Multiplicity = 1
  Basis Set: 6-31G*
    Blend: 6-31G*
  Basis Set: (6-31G* AUX)
    Blend: CC-PVDZ-JKFIT

    Orbital Energies [Eh]
    ---------------------

    Doubly Occupied:

       1A    -19.261184     2A    -10.333540     3A     -1.111109
       4A     -0.774450     5A     -0.589818     6A     -0.521435
       7A     -0.505268     8A     -0.412622     9A     -0.347603

  @DF-RKS Final Energy:  -115.67627852572677

   => Energetics <=

    Nuclear Repulsion Energy =             40.2626106739950202
    One-Electron Energy =                -236.9461016770371771
    Two-Electron Energy =                  91.6651179508265415
    DFT Exchange-Correlation Energy =     -10.6570834606567519
    Empirical Dispersion Energy =          -0.0008220128544141
    VV10 Nonlocal Energy =                  0.0000000000000000
    Total Energy =                       -115.6762785257267723

  Dipole Moment: [D]
     X:    -0.9778      Y:    -1.5044      Z:     0.2300     Total:     1.8089

    Molecular point group: c1
  Basis Set: 6-31G*
    Blend: 6-31G*
  Basis Set: (6-31G* AUX)
    Blend: CC-PVDZ-JKFIT

  -Total Gradient:
     Atom            X                  Y                   Z
    ------   -----------------  -----------------  -----------------
       1        0.003244236730    -0.000220225234    -0.002612811993
       2       -0.005373433968    -0.000961259054    -0.000754374341
       3        0.000750737965    -0.000145989049     0.000593951851
       4        0.001339039746     0.001369227806    -0.000120385877
       5       -0.000894494538     0.000799496669     0.000951004766
       6        0.000733076055    -0.000832707034     0.001948678921

    Molecular point group: c1

    Geometry (in Angstrom), charge = 0, multiplicity = 1:

    O            0.692445912672     0.021073338156     0.002848674228
    C           -0.726183244268     0.032094974468    -0.011116073300
    H           -1.154395772080    -0.710358603198     0.675790019357
    H           -1.119959528274    -0.139268767465    -1.022064107270
    H           -1.052695952223     1.023517804443     0.320606909195
    H            0.983971605684    -0.890488965334     0.112813831894

*** Psi4 exiting successfully. Buy a developer a beer!
