                               Psi4 1.3.2 release

  ==> Input File <==

--------------------------------------------------------------------------
molecule {
0 1
 O    0.673657    0.003869   -0.031286
 C   -0.741393    0.030718   -0.020427
 H   -1.116243   -0.729499    0.678634
 H   -1.102429   -0.122692   -1.046346
 H   -1.051077    1.025763    0.330170
 H    0.978832   -0.305899    0.828033
}
set {
 e_convergence 10
 d_convergence 10
}
memory 100GB
set_num_threads(8)
psi4_io.set_default_path("/scratch/bdw2292/Psi4-methanol")
set freeze_core True
E, wfn = energy('wb97x-d/6-311+G*',return_wfn=True)
oeprop(wfn,"WIBERG_LOWDIN_INDICES")
clean()
--------------------------------------------------------------------------

    Molecular point group: c1

    Geometry (in Angstrom), charge = 0, multiplicity = 1:

       Center              X                  Y                   Z               Mass
    ------------   -----------------  -----------------  -----------------  -----------------
         O            0.687098279429    -0.005408957572    -0.032882683191    15.994914619570
         C           -0.727951720571     0.021440042428    -0.022023683191    12.000000000000
         H           -1.102801720571    -0.738776957572     0.677037316809     1.007825032230
         H           -1.088987720571    -0.131969957572    -1.047942683191     1.007825032230
         H           -1.037635720571     1.016485042428     0.328573316809     1.007825032230
         H            0.992273279429    -0.315176957572     0.826436316809     1.007825032230

  Charge       = 0
  Multiplicity = 1
  Basis Set: 6-311+G*
    Blend: 6-311+G*
  Basis Set: (6-311+G* AUX)
    Blend: HEAVY-AUG-CC-PVTZ-JKFIT

    Orbital Energies [Eh]
    ---------------------

    Doubly Occupied:

       1A    -19.245772     2A    -10.325518     3A     -1.128140
       4A     -0.781951     5A     -0.602471     6A     -0.530807
       7A     -0.520613     8A     -0.424650     9A     -0.359758

  @DF-RKS Final Energy:  -115.71000277671244

   => Energetics <=

    Nuclear Repulsion Energy =             40.3681594159424861
    One-Electron Energy =                -237.0931973969979936
    Two-Electron Energy =                  91.6803074143447674
    DFT Exchange-Correlation Energy =     -10.6644551726698253
    Empirical Dispersion Energy =          -0.0008170373318984
    VV10 Nonlocal Energy =                  0.0000000000000000
    Total Energy =                       -115.7100027767124573

  Dipole Moment: [D]
     X:    -1.1384      Y:    -0.5693      Z:     1.6030     Total:     2.0469

*** Psi4 exiting successfully. Buy a developer a beer!
