                               Psi4 1.3.2 release

  ==> Input File <==

--------------------------------------------------------------------------
molecule {
0 1
 O    0.672465    0.011810    0.004549
 C   -0.742719    0.039402    0.012398
 H   -1.104414   -0.720558    0.718000
 H   -1.103996   -0.120482   -1.012581
 H   -1.065678    1.032643    0.357008
 H    0.994042    0.902785   -0.169574
}
set optking {
  frozen_dihedral = ("
  ")
}
set {
  geom_maxiter 3
  g_convergence GAU_LOOSE
}
memory 100GB
set_num_threads(8)
psi4_io.set_default_path("/scratch/bdw2292/Psi4-methanol")
for _ in range(1):
  try:
    optimize('wb97x-d/6-31G*')
    break
  except OptimizationConvergenceError:
    try:
      set opt_coordinates cartesian
      optimize('wb97x-d/6-31G*')
      break
    except OptimizationConvergenceError:
      pass
clean()
--------------------------------------------------------------------------

    Molecular point group: c1
  Charge       = 0
  Multiplicity = 1
  Basis Set: 6-31G*
    Blend: 6-31G*
  Basis Set: (6-31G* AUX)
    Blend: CC-PVDZ-JKFIT
  @DF-RKS Final Energy:  -115.67451503251122
    Total Energy =                       -115.6745150325112235
    Molecular point group: c1
  Basis Set: 6-31G*
    Blend: 6-31G*
  Basis Set: (6-31G* AUX)
    Blend: CC-PVDZ-JKFIT
  Basis Set: 6-31G*
    Blend: 6-31G*
  Basis Set: (6-31G* AUX)
    Blend: CC-PVDZ-JKFIT
  @DF-RKS Final Energy:  -115.67634170559292
    Total Energy =                       -115.6763417055929182
  Basis Set: 6-31G*
    Blend: 6-31G*
  Basis Set: (6-31G* AUX)
    Blend: CC-PVDZ-JKFIT
  Basis Set: 6-31G*
    Blend: 6-31G*
  @DF-RKS Final Energy:  -115.67672360595813
    Total Energy =                       -115.6767236059581307
  @DF-RKS Final Energy:  -115.67451503251114
    Total Energy =                       -115.6745150325111382
  Basis Set: (6-31G* AUX)
    Blend: CC-PVDZ-JKFIT
  Basis Set: 6-31G*
    Blend: 6-31G*
  Basis Set: (6-31G* AUX)
    Blend: CC-PVDZ-JKFIT
  @DF-RKS Final Energy:  -115.67623847950166
    Total Energy =                       -115.6762384795016629
  Basis Set: 6-31G*
    Blend: 6-31G*
  Basis Set: (6-31G* AUX)
    Blend: CC-PVDZ-JKFIT
  Charge       = 0
  Multiplicity = 1
  Basis Set: 6-31G*
    Blend: 6-31G*
  Basis Set: (6-31G* AUX)
    Blend: CC-PVDZ-JKFIT

    Orbital Energies [Eh]
    ---------------------

    Doubly Occupied:

       1A    -19.261188     2A    -10.333763     3A     -1.111169
       4A     -0.774385     5A     -0.590066     6A     -0.521075
       7A     -0.505151     8A     -0.412964     9A     -0.347588

  @DF-RKS Final Energy:  -115.67623848091958

   => Energetics <=

    Nuclear Repulsion Energy =             40.2549312631533240
    One-Electron Energy =                -236.9302093789001731
    Two-Electron Energy =                  91.6566563903641054
    DFT Exchange-Correlation Energy =     -10.6567936892783770
    Empirical Dispersion Energy =          -0.0008230662584759
    VV10 Nonlocal Energy =                  0.0000000000000000
    Total Energy =                       -115.6762384809195794

  Dipole Moment: [D]
     X:    -0.9066      Y:     1.5351      Z:    -0.3294     Total:     1.8130

    Molecular point group: c1
  Basis Set: 6-31G*
    Blend: 6-31G*
  Basis Set: (6-31G* AUX)
    Blend: CC-PVDZ-JKFIT

  -Total Gradient:
     Atom            X                  Y                   Z
    ------   -----------------  -----------------  -----------------
       1        0.003736214740    -0.000545633073    -0.002642628946
       2       -0.005222802734    -0.002515017171    -0.000470230654
       3       -0.000324859496     0.000433521027     0.001457828456
       4        0.001243932860     0.000086501906    -0.000066005900
       5       -0.000080262266     0.001513064470     0.000093000885
       6        0.000466134911     0.001038448614     0.001627011556

    Molecular point group: c1

    Geometry (in Angstrom), charge = 0, multiplicity = 1:

    O            0.690995851651    -0.051221489837     0.015530557545
    C           -0.727127974522    -0.001048131281    -0.004285788926
    H           -1.095616791179    -0.779898170061     0.669798253311
    H           -1.121684079234    -0.185037487736    -1.012979308081
    H           -1.115324846336     0.965276147605     0.352154149312
    H            1.023808331824     0.825061643892    -0.204424158492

*** Psi4 exiting successfully. Buy a developer a beer!
