                               Psi4 1.3.2 release

  ==> Input File <==

--------------------------------------------------------------------------
molecule {
0 1
 O    0.673257   -0.050328   -0.011119
 C   -0.741898   -0.022551   -0.003837
 H   -1.102730   -0.784601    0.700073
 H   -1.103096   -0.179902   -1.029301
 H   -1.065473    0.969542    0.342912
 H    0.994989    0.840974   -0.182935
}
set {
 e_convergence 10
 d_convergence 10
}
memory 100GB
set_num_threads(8)
psi4_io.set_default_path("/scratch/bdw2292/Psi4-methanol")
set freeze_core True
E, wfn = energy('wb97x-d/6-311+G*',return_wfn=True)
oeprop(wfn,"WIBERG_LOWDIN_INDICES")
clean()
--------------------------------------------------------------------------

    Molecular point group: c1

    Geometry (in Angstrom), charge = 0, multiplicity = 1:

       Center              X                  Y                   Z               Mass
    ------------   -----------------  -----------------  -----------------  -----------------
         O            0.686627608124    -0.043365860211     0.001197998849    15.994914619570
         C           -0.728527391876    -0.015588860211     0.008479998849    12.000000000000
         H           -1.089359391876    -0.777638860211     0.712389998849     1.007825032230
         H           -1.089725391876    -0.172939860211    -1.016984001151     1.007825032230
         H           -1.052102391876     0.976504139789     0.355228998849     1.007825032230
         H            1.008359608124     0.847936139789    -0.170618001151     1.007825032230

  Charge       = 0
  Multiplicity = 1
  Basis Set: 6-311+G*
    Blend: 6-311+G*
  Basis Set: (6-311+G* AUX)
    Blend: HEAVY-AUG-CC-PVTZ-JKFIT

    Orbital Energies [Eh]
    ---------------------

    Doubly Occupied:

       1A    -19.245676     2A    -10.325631     3A     -1.128077
       4A     -0.781868     5A     -0.601981     6A     -0.535505
       7A     -0.517520     8A     -0.421829     9A     -0.361660

  @DF-RKS Final Energy:  -115.71000829299918

   => Energetics <=

    Nuclear Repulsion Energy =             40.3680759908553100
    One-Electron Energy =                -237.0928837716084558
    Two-Electron Energy =                  91.6800891457630627
    DFT Exchange-Correlation Energy =     -10.6644736930130968
    Empirical Dispersion Energy =          -0.0008159649960094
    VV10 Nonlocal Energy =                  0.0000000000000000
    Total Energy =                       -115.7100082929991771

  Dipole Moment: [D]
     X:    -1.1092      Y:     1.7152      Z:    -0.2630     Total:     2.0595

*** Psi4 exiting successfully. Buy a developer a beer!
