                               Psi4 1.3.2 release

  ==> Input File <==

--------------------------------------------------------------------------
molecule {
0 1
 O    0.672837    0.011662    0.003870
 C   -0.742642    0.036558    0.008858
 H   -1.104219   -0.721216    0.717090
 H   -1.118359   -0.125291   -1.010753
 H   -1.053621    1.033878    0.351296
 H    0.973404   -0.168690   -0.893062
}
set optking {
  frozen_dihedral = ("
  ")
}
set {
  geom_maxiter 3
  g_convergence GAU_LOOSE
}
memory 100GB
set_num_threads(8)
psi4_io.set_default_path("/scratch/bdw2292/Psi4-methanol")
for _ in range(1):
  try:
    optimize('wb97x-d/6-31G*')
    break
  except OptimizationConvergenceError:
    try:
      set opt_coordinates cartesian
      optimize('wb97x-d/6-31G*')
      break
    except OptimizationConvergenceError:
      pass
clean()
--------------------------------------------------------------------------

    Molecular point group: c1
  Charge       = 0
  Multiplicity = 1
  Basis Set: 6-31G*
    Blend: 6-31G*
  Basis Set: (6-31G* AUX)
    Blend: CC-PVDZ-JKFIT
  @DF-RKS Final Energy:  -115.67387896093300
    Total Energy =                       -115.6738789609329956
    Molecular point group: c1
  Basis Set: 6-31G*
    Blend: 6-31G*
  Basis Set: (6-31G* AUX)
    Blend: CC-PVDZ-JKFIT
  Basis Set: 6-31G*
    Blend: 6-31G*
  Basis Set: (6-31G* AUX)
    Blend: CC-PVDZ-JKFIT
  @DF-RKS Final Energy:  -115.67482990040557
    Total Energy =                       -115.6748299004055696
  Basis Set: 6-31G*
    Blend: 6-31G*
  Basis Set: (6-31G* AUX)
    Blend: CC-PVDZ-JKFIT
  Basis Set: 6-31G*
    Blend: 6-31G*
  @DF-RKS Final Energy:  -115.67493474570814
    Total Energy =                       -115.6749347457081427
  @DF-RKS Final Energy:  -115.67387896093297
    Total Energy =                       -115.6738789609329672
  Basis Set: (6-31G* AUX)
    Blend: CC-PVDZ-JKFIT
  Basis Set: 6-31G*
    Blend: 6-31G*
  Basis Set: (6-31G* AUX)
    Blend: CC-PVDZ-JKFIT
  @DF-RKS Final Energy:  -115.67489050044485
    Total Energy =                       -115.6748905004448318
  Basis Set: 6-31G*
    Blend: 6-31G*
  Basis Set: (6-31G* AUX)
    Blend: CC-PVDZ-JKFIT
  Charge       = 0
  Multiplicity = 1
  Basis Set: 6-31G*
    Blend: 6-31G*
  Basis Set: (6-31G* AUX)
    Blend: CC-PVDZ-JKFIT

    Orbital Energies [Eh]
    ---------------------

    Doubly Occupied:

       1A    -19.259822     2A    -10.333599     3A     -1.110278
       4A     -0.774766     5A     -0.590914     6A     -0.518894
       7A     -0.506627     8A     -0.412436     9A     -0.345945

  @DF-RKS Final Energy:  -115.67489050044513

   => Energetics <=

    Nuclear Repulsion Energy =             40.2439898045566906
    One-Electron Energy =                -236.9130117937702948
    Two-Electron Energy =                  91.6529294233715746
    DFT Exchange-Correlation Energy =     -10.6579999002222596
    Empirical Dispersion Energy =          -0.0007980343808382
    VV10 Nonlocal Energy =                  0.0000000000000000
    Total Energy =                       -115.6748905004451302

  Dipole Moment: [D]
     X:    -0.9688      Y:    -0.2971      Z:    -1.5776     Total:     1.8750

    Molecular point group: c1
  Basis Set: 6-31G*
    Blend: 6-31G*
  Basis Set: (6-31G* AUX)
    Blend: CC-PVDZ-JKFIT

  -Total Gradient:
     Atom            X                  Y                   Z
    ------   -----------------  -----------------  -----------------
       1        0.002909588030    -0.000329817023    -0.000297463567
       2       -0.004739050406    -0.001261791539     0.000291064187
       3        0.000770694823     0.000406777309     0.000762842067
       4        0.000658055039     0.000598849147    -0.000831405694
       5       -0.000129745170     0.000594286590     0.000283936659
       6        0.000464399806     0.000013871925    -0.000124876952

    Molecular point group: c1

    Geometry (in Angstrom), charge = 0, multiplicity = 1:

    O            0.692825503038    -0.013411285172     0.026542862627
    C           -0.726923044348     0.024871428716     0.027328755974
    H           -1.115300958332    -0.734084390271     0.716606772050
    H           -1.150083602333    -0.152912030607    -0.969265327559
    H           -1.070360017971     1.009357077278     0.370832353069
    H            0.995449229997    -0.205653669213    -0.864827104528

*** Psi4 exiting successfully. Buy a developer a beer!
