                               Psi4 1.3.2 release

  ==> Input File <==

--------------------------------------------------------------------------
molecule {
0 1
 O    0.672871    0.012214   -0.025787
 C   -0.742107    0.033878   -0.015918
 H   -1.113686   -0.724514    0.686841
 H   -1.104875   -0.124473   -1.040590
 H   -1.052802    1.029642    0.331157
 H    0.963783   -0.890178    0.143177
}
set {
 e_convergence 10
 d_convergence 10
}
memory 100GB
set_num_threads(8)
psi4_io.set_default_path("/scratch/bdw2292/Psi4-methanol")
set freeze_core True
E, wfn = energy('wb97x-d/6-311+G*',return_wfn=True)
oeprop(wfn,"WIBERG_LOWDIN_INDICES")
clean()
--------------------------------------------------------------------------

    Molecular point group: c1

    Geometry (in Angstrom), charge = 0, multiplicity = 1:

       Center              X                  Y                   Z               Mass
    ------------   -----------------  -----------------  -----------------  -----------------
         O            0.687496727597     0.015747891035    -0.010738444135    15.994914619570
         C           -0.727481272403     0.037411891035    -0.000869444135    12.000000000000
         H           -1.099060272403    -0.720980108965     0.701889555865     1.007825032230
         H           -1.090249272403    -0.120939108965    -1.025541444135     1.007825032230
         H           -1.038176272403     1.033175891035     0.346205555865     1.007825032230
         H            0.978408727597    -0.886644108965     0.158225555865     1.007825032230

  Charge       = 0
  Multiplicity = 1
  Basis Set: 6-311+G*
    Blend: 6-311+G*
  Basis Set: (6-311+G* AUX)
    Blend: HEAVY-AUG-CC-PVTZ-JKFIT

    Orbital Energies [Eh]
    ---------------------

    Doubly Occupied:

       1A    -19.245961     2A    -10.325221     3A     -1.128188
       4A     -0.782001     5A     -0.601062     6A     -0.535334
       7A     -0.517564     8A     -0.422438     9A     -0.361690

  @DF-RKS Final Energy:  -115.71042488110083

   => Energetics <=

    Nuclear Repulsion Energy =             40.3699679095681887
    One-Electron Energy =                -237.0981136008806516
    Two-Electron Energy =                  91.6829953014583054
    DFT Exchange-Correlation Energy =     -10.6644564448127355
    Empirical Dispersion Energy =          -0.0008180464339254
    VV10 Nonlocal Energy =                  0.0000000000000000
    Total Energy =                       -115.7104248811008347

  Dipole Moment: [D]
     X:    -1.1619      Y:    -1.6335      Z:     0.3723     Total:     2.0389

*** Psi4 exiting successfully. Buy a developer a beer!
