                               Psi4 1.3.2 release

  ==> Input File <==

--------------------------------------------------------------------------
molecule {
0 1
 O    0.672417    0.011854    0.004375
 C   -0.742388    0.038397    0.010951
 H   -1.103958   -0.720811    0.717407
 H   -1.108213   -0.122488   -1.012417
 H   -1.059001    1.033720    0.355046
 H    0.985044    0.696928   -0.596261
}
set optking {
  frozen_dihedral = ("
  ")
}
set {
  geom_maxiter 3
  g_convergence GAU_LOOSE
}
memory 100GB
set_num_threads(8)
psi4_io.set_default_path("/scratch/bdw2292/Psi4-methanol")
for _ in range(1):
  try:
    optimize('wb97x-d/6-31G*')
    break
  except OptimizationConvergenceError:
    try:
      set opt_coordinates cartesian
      optimize('wb97x-d/6-31G*')
      break
    except OptimizationConvergenceError:
      pass
clean()
--------------------------------------------------------------------------

    Molecular point group: c1
  Charge       = 0
  Multiplicity = 1
  Basis Set: 6-31G*
    Blend: 6-31G*
  Basis Set: (6-31G* AUX)
    Blend: CC-PVDZ-JKFIT
  @DF-RKS Final Energy:  -115.67535700624813
    Total Energy =                       -115.6753570062481344
    Molecular point group: c1
  Basis Set: 6-31G*
    Blend: 6-31G*
  Basis Set: (6-31G* AUX)
    Blend: CC-PVDZ-JKFIT
  Basis Set: 6-31G*
    Blend: 6-31G*
  Basis Set: (6-31G* AUX)
    Blend: CC-PVDZ-JKFIT
  @DF-RKS Final Energy:  -115.67698209508367
    Total Energy =                       -115.6769820950836731
  Basis Set: 6-31G*
    Blend: 6-31G*
  Basis Set: (6-31G* AUX)
    Blend: CC-PVDZ-JKFIT
  Charge       = 0
  Multiplicity = 1
  Basis Set: 6-31G*
    Blend: 6-31G*
  Basis Set: (6-31G* AUX)
    Blend: CC-PVDZ-JKFIT

    Orbital Energies [Eh]
    ---------------------

    Doubly Occupied:

       1A    -19.262579     2A    -10.333159     3A     -1.113659
       4A     -0.774523     5A     -0.591238     6A     -0.521392
       7A     -0.505423     8A     -0.413881     9A     -0.348650

  @DF-RKS Final Energy:  -115.67717467841103

   => Energetics <=

    Nuclear Repulsion Energy =             40.3456500778707863
    One-Electron Energy =                -237.0980429638374289
    Two-Electron Energy =                  91.7346303184624361
    DFT Exchange-Correlation Energy =     -10.6585743797527073
    Empirical Dispersion Energy =          -0.0008377311541388
    VV10 Nonlocal Energy =                  0.0000000000000000
    Total Energy =                       -115.6771746784110348

  Dipole Moment: [D]
     X:    -0.8918      Y:     1.1612      Z:    -0.9723     Total:     1.7576

    Molecular point group: c1
  Basis Set: 6-31G*
    Blend: 6-31G*
  Basis Set: (6-31G* AUX)
    Blend: CC-PVDZ-JKFIT

  -Total Gradient:
     Atom            X                  Y                   Z
    ------   -----------------  -----------------  -----------------
       1        0.002118702431    -0.000364343013     0.000154115519
       2       -0.002343199520    -0.000337577137    -0.000282463930
       3        0.000170577853     0.000280259108    -0.000066607902
       4        0.000076893277     0.000208560149     0.000296630103
       5       -0.000261539967     0.000072470236     0.000011339968
       6       -0.000022023020     0.000128715038    -0.000098417805

  **** Optimization is complete! (in 3 steps) ****
    Final optimized geometry and variables:
    Molecular point group: c1

    Geometry (in Angstrom), charge = 0, multiplicity = 1:

    O            0.688625400017    -0.051093356243     0.021146710053
    C           -0.723488707310     0.012445732496     0.013198249399
    H           -1.076691109035    -0.762186107185     0.696897761100
    H           -1.148862653846    -0.186081204260    -0.981084444017
    H           -1.105214178620     0.981513487231     0.368265039115
    H            1.016239212982     0.629453260544    -0.576841284966

*** Psi4 exiting successfully. Buy a developer a beer!
