                               Psi4 1.3.2 release

  ==> Input File <==

--------------------------------------------------------------------------
molecule {
0 1
 O    0.672258   -0.013878    0.027751
 C   -0.743182    0.014618    0.029746
 H   -1.108483   -0.740310    0.739017
 H   -1.117258   -0.148745   -0.990245
 H   -1.052064    1.013690    0.369021
 H    0.974336   -0.197207   -0.868072
}
set {
 e_convergence 10
 d_convergence 10
}
memory 100GB
set_num_threads(8)
psi4_io.set_default_path("/scratch/bdw2292/Psi4-methanol")
set freeze_core True
E, wfn = energy('wb97x-d/6-311+G*',return_wfn=True)
oeprop(wfn,"WIBERG_LOWDIN_INDICES")
clean()
--------------------------------------------------------------------------

    Molecular point group: c1

    Geometry (in Angstrom), charge = 0, multiplicity = 1:

       Center              X                  Y                   Z               Mass
    ------------   -----------------  -----------------  -----------------  -----------------
         O            0.687463306361    -0.010140396157     0.026355989113    15.994914619570
         C           -0.727976693639     0.018355603843     0.028350989113    12.000000000000
         H           -1.093277693639    -0.736572396157     0.737621989113     1.007825032230
         H           -1.102052693639    -0.145007396157    -0.991640010887     1.007825032230
         H           -1.036858693639     1.017427603843     0.367625989113     1.007825032230
         H            0.989541306361    -0.193469396157    -0.869467010887     1.007825032230

  Charge       = 0
  Multiplicity = 1
  Basis Set: 6-311+G*
    Blend: 6-311+G*
  Basis Set: (6-311+G* AUX)
    Blend: HEAVY-AUG-CC-PVTZ-JKFIT

    Orbital Energies [Eh]
    ---------------------

    Doubly Occupied:

       1A    -19.245662     2A    -10.325250     3A     -1.127911
       4A     -0.781999     5A     -0.603022     6A     -0.531264
       7A     -0.519119     8A     -0.423952     9A     -0.360241

  @DF-RKS Final Energy:  -115.70943342653679

   => Energetics <=

    Nuclear Repulsion Energy =             40.3589869773524796
    One-Electron Energy =                -237.0762683916591982
    Two-Electron Energy =                  91.6731063419389614
    DFT Exchange-Correlation Energy =     -10.6644615850602413
    Empirical Dispersion Energy =          -0.0007967691087981
    VV10 Nonlocal Energy =                  0.0000000000000000
    Total Energy =                       -115.7094334265367905

  Dipole Moment: [D]
     X:    -1.1362      Y:    -0.3028      Z:    -1.7081     Total:     2.0737

*** Psi4 exiting successfully. Buy a developer a beer!
