                               Psi4 1.3.2 release

  ==> Input File <==

--------------------------------------------------------------------------
molecule {
0 1
 O    0.673630   -0.016267    0.028709
 C   -0.741441    0.011288    0.033184
 H   -1.104200   -0.745773    0.741460
 H   -1.113610   -0.151008   -0.987736
 H   -1.052183    1.009046    0.375027
 H    0.981005    0.274211   -0.836542
}
set {
 e_convergence 10
 d_convergence 10
}
memory 100GB
set_num_threads(8)
psi4_io.set_default_path("/scratch/bdw2292/Psi4-methanol")
set freeze_core True
E, wfn = energy('wb97x-d/6-311+G*',return_wfn=True)
oeprop(wfn,"WIBERG_LOWDIN_INDICES")
clean()
--------------------------------------------------------------------------

    Molecular point group: c1

    Geometry (in Angstrom), charge = 0, multiplicity = 1:

       Center              X                  Y                   Z               Mass
    ------------   -----------------  -----------------  -----------------  -----------------
         O            0.687042046134    -0.024534193395     0.024210294250    15.994914619570
         C           -0.728028953866     0.003020806605     0.028685294250    12.000000000000
         H           -1.090787953866    -0.754040193395     0.736961294250     1.007825032230
         H           -1.100197953866    -0.159275193395    -0.992234705750     1.007825032230
         H           -1.038770953866     1.000778806605     0.370528294250     1.007825032230
         H            0.994417046134     0.265943806605    -0.841040705750     1.007825032230

  Charge       = 0
  Multiplicity = 1
  Basis Set: 6-311+G*
    Blend: 6-311+G*
  Basis Set: (6-311+G* AUX)
    Blend: HEAVY-AUG-CC-PVTZ-JKFIT

    Orbital Energies [Eh]
    ---------------------

    Doubly Occupied:

       1A    -19.245772     2A    -10.325518     3A     -1.128140
       4A     -0.781951     5A     -0.602471     6A     -0.530807
       7A     -0.520614     8A     -0.424649     9A     -0.359758

  @DF-RKS Final Energy:  -115.71000278462978

   => Energetics <=

    Nuclear Repulsion Energy =             40.3681583312145946
    One-Electron Energy =                -237.0931939755586200
    Two-Electron Energy =                  91.6803052803308987
    DFT Exchange-Correlation Energy =     -10.6644553855369324
    Empirical Dispersion Energy =          -0.0008170350797375
    VV10 Nonlocal Energy =                  0.0000000000000000
    Total Energy =                       -115.7100027846297792

  Dipole Moment: [D]
     X:    -1.1343      Y:     0.5483      Z:    -1.6132     Total:     2.0469

*** Psi4 exiting successfully. Buy a developer a beer!
