                               Psi4 1.3.2 release

  ==> Input File <==

--------------------------------------------------------------------------
molecule {
0 1
 O    0.672202    0.005233   -0.029653
 C   -0.743143    0.031179   -0.015159
 H   -1.120028   -0.729234    0.682509
 H   -1.107161   -0.119785   -1.040413
 H   -1.050113    1.025725    0.338777
 H    0.972290   -0.695132    0.559221
}
set {
 e_convergence 10
 d_convergence 10
}
memory 100GB
set_num_threads(8)
psi4_io.set_default_path("/scratch/bdw2292/Psi4-methanol")
set freeze_core True
E, wfn = energy('wb97x-d/6-311+G*',return_wfn=True)
oeprop(wfn,"WIBERG_LOWDIN_INDICES")
clean()
--------------------------------------------------------------------------

    Molecular point group: c1

    Geometry (in Angstrom), charge = 0, multiplicity = 1:

       Center              X                  Y                   Z               Mass
    ------------   -----------------  -----------------  -----------------  -----------------
         O            0.687469217807     0.007251137718    -0.026159457253    15.994914619570
         C           -0.727875782193     0.033197137718    -0.011665457253    12.000000000000
         H           -1.104760782193    -0.727215862282     0.686002542747     1.007825032230
         H           -1.091893782193    -0.117766862282    -1.036919457253     1.007825032230
         H           -1.034845782193     1.027743137718     0.342270542747     1.007825032230
         H            0.987557217807    -0.693113862282     0.562714542747     1.007825032230

  Charge       = 0
  Multiplicity = 1
  Basis Set: 6-311+G*
    Blend: 6-311+G*
  Basis Set: (6-311+G* AUX)
    Blend: HEAVY-AUG-CC-PVTZ-JKFIT

    Orbital Energies [Eh]
    ---------------------

    Doubly Occupied:

       1A    -19.245660     2A    -10.325233     3A     -1.127939
       4A     -0.781991     5A     -0.603043     6A     -0.531309
       7A     -0.519040     8A     -0.423994     9A     -0.360229

  @DF-RKS Final Energy:  -115.70943347293587

   => Energetics <=

    Nuclear Repulsion Energy =             40.3604787045834428
    One-Electron Energy =                -237.0791915882674630
    Two-Electron Energy =                  91.6745783892173733
    DFT Exchange-Correlation Energy =     -10.6645019695813303
    Empirical Dispersion Energy =          -0.0007970088878936
    VV10 Nonlocal Energy =                  0.0000000000000000
    Total Energy =                       -115.7094334729358707

  Dipole Moment: [D]
     X:    -1.1395      Y:    -1.2959      Z:     1.1499     Total:     2.0737

*** Psi4 exiting successfully. Buy a developer a beer!
