                               Psi4 1.3.2 release

  ==> Input File <==

--------------------------------------------------------------------------
molecule {
0 1
 O    0.672649    0.011467    0.006065
 C   -0.742987    0.039829    0.013327
 H   -1.105502   -0.720871    0.717892
 H   -1.101933   -0.119175   -1.012505
 H   -1.070145    1.031659    0.357620
 H    0.999618    0.866791    0.304100
}
set optking {
  frozen_dihedral = ("
  ")
}
set {
  geom_maxiter 3
  g_convergence GAU_LOOSE
}
memory 100GB
set_num_threads(8)
psi4_io.set_default_path("/scratch/bdw2292/Psi4-methanol")
for _ in range(1):
  try:
    optimize('wb97x-d/6-31G*')
    break
  except OptimizationConvergenceError:
    try:
      set opt_coordinates cartesian
      optimize('wb97x-d/6-31G*')
      break
    except OptimizationConvergenceError:
      pass
clean()
--------------------------------------------------------------------------

    Molecular point group: c1
  Charge       = 0
  Multiplicity = 1
  Basis Set: 6-31G*
    Blend: 6-31G*
  Basis Set: (6-31G* AUX)
    Blend: CC-PVDZ-JKFIT
  @DF-RKS Final Energy:  -115.67368130907587
    Total Energy =                       -115.6736813090758602
    Molecular point group: c1
  Basis Set: 6-31G*
    Blend: 6-31G*
  Basis Set: (6-31G* AUX)
    Blend: CC-PVDZ-JKFIT
  Basis Set: 6-31G*
    Blend: 6-31G*
  Basis Set: (6-31G* AUX)
    Blend: CC-PVDZ-JKFIT
  @DF-RKS Final Energy:  -115.67479947200052
    Total Energy =                       -115.6747994720005011
  Basis Set: 6-31G*
    Blend: 6-31G*
  Basis Set: (6-31G* AUX)
    Blend: CC-PVDZ-JKFIT
  Charge       = 0
  Multiplicity = 1
  Basis Set: 6-31G*
    Blend: 6-31G*
  Basis Set: (6-31G* AUX)
    Blend: CC-PVDZ-JKFIT

    Orbital Energies [Eh]
    ---------------------

    Doubly Occupied:

       1A    -19.260378     2A    -10.333093     3A     -1.111949
       4A     -0.774877     5A     -0.592041     6A     -0.519516
       7A     -0.506476     8A     -0.412861     9A     -0.346271

  @DF-RKS Final Energy:  -115.67492459482995

   => Energetics <=

    Nuclear Repulsion Energy =             40.3068540684671675
    One-Electron Energy =                -237.0292542862842993
    Two-Electron Energy =                  91.7080915912910655
    DFT Exchange-Correlation Energy =     -10.6598195587397271
    Empirical Dispersion Energy =          -0.0007964095641672
    VV10 Nonlocal Energy =                  0.0000000000000000
    Total Energy =                       -115.6749245948299603

  Dipole Moment: [D]
     X:    -0.8765      Y:     1.5667      Z:     0.5445     Total:     1.8760

    Molecular point group: c1
  Basis Set: 6-31G*
    Blend: 6-31G*
  Basis Set: (6-31G* AUX)
    Blend: CC-PVDZ-JKFIT

  -Total Gradient:
     Atom            X                  Y                   Z
    ------   -----------------  -----------------  -----------------
       1        0.001526887021    -0.000531815533    -0.000176411998
       2       -0.001466873662    -0.000011958722    -0.000010587270
       3        0.000249444878     0.000312487571    -0.000197173491
       4        0.000245221333     0.000124226122     0.000348282718
       5       -0.000289081696    -0.000048174491    -0.000016944931
       6       -0.000343845781     0.000069157080     0.000020724550

  **** Optimization is complete! (in 3 steps) ****
    Final optimized geometry and variables:
    Molecular point group: c1

    Geometry (in Angstrom), charge = 0, multiplicity = 1:

    O            0.689700158013    -0.057263757042    -0.018631874621
    C           -0.725229273206     0.006690099996     0.000930011307
    H           -1.123535182548    -0.761788533196     0.673599530705
    H           -1.120285374533    -0.177447024275    -1.004906904407
    H           -1.102752220615     0.979783200238     0.338955933997
    H            1.035711479790     0.788611862109     0.276979325418

*** Psi4 exiting successfully. Buy a developer a beer!
