                               Psi4 1.3.2 release

  ==> Input File <==

--------------------------------------------------------------------------
molecule {
0 1
 O    0.673445   -0.040465    0.014703
 C   -0.741305   -0.013897    0.021383
 H   -1.102710   -0.773224    0.727820
 H   -1.107115   -0.174650   -1.002026
 H   -1.057445    0.981538    0.365652
 H    0.985738    0.644750   -0.585948
}
set {
 e_convergence 10
 d_convergence 10
}
memory 100GB
set_num_threads(8)
psi4_io.set_default_path("/scratch/bdw2292/Psi4-methanol")
set freeze_core True
E, wfn = energy('wb97x-d/6-311+G*',return_wfn=True)
oeprop(wfn,"WIBERG_LOWDIN_INDICES")
clean()
--------------------------------------------------------------------------

    Molecular point group: c1

    Geometry (in Angstrom), charge = 0, multiplicity = 1:

       Center              X                  Y                   Z               Mass
    ------------   -----------------  -----------------  -----------------  -----------------
         O            0.686663851768    -0.036397219599     0.014909151882    15.994914619570
         C           -0.728086148232    -0.009829219599     0.021589151882    12.000000000000
         H           -1.089491148232    -0.769156219599     0.728026151882     1.007825032230
         H           -1.093896148232    -0.170582219599    -1.001819848118     1.007825032230
         H           -1.044226148232     0.985605780401     0.365858151882     1.007825032230
         H            0.998956851768     0.648817780401    -0.585741848118     1.007825032230

  Charge       = 0
  Multiplicity = 1
  Basis Set: 6-311+G*
    Blend: 6-311+G*
  Basis Set: (6-311+G* AUX)
    Blend: HEAVY-AUG-CC-PVTZ-JKFIT

    Orbital Energies [Eh]
    ---------------------

    Doubly Occupied:

       1A    -19.245916     2A    -10.325726     3A     -1.128290
       4A     -0.781902     5A     -0.601200     6A     -0.533914
       7A     -0.519654     8A     -0.423627     9A     -0.360531

  @DF-RKS Final Energy:  -115.71075587171167

   => Energetics <=

    Nuclear Repulsion Energy =             40.3756750926396748
    One-Electron Energy =                -237.1075628331676342
    Two-Electron Energy =                  91.6863681416764962
    DFT Exchange-Correlation Energy =     -10.6643978611374877
    Empirical Dispersion Energy =          -0.0008384117227256
    VV10 Nonlocal Energy =                  0.0000000000000000
    Total Energy =                       -115.7107558717116689

  Dipole Moment: [D]
     X:    -1.1338      Y:     1.2858      Z:    -1.0717     Total:     2.0217

*** Psi4 exiting successfully. Buy a developer a beer!
