                               Psi4 1.3.2 release

  ==> Input File <==

--------------------------------------------------------------------------
molecule {
0 1
 O    0.672458    0.008891    0.004477
 C   -0.742999    0.034106    0.013924
 H   -1.121161   -0.724999    0.712303
 H   -1.103797   -0.119558   -1.012077
 H   -1.052191    1.029277    0.364243
 H    0.970890   -0.689818    0.596130
}
set optking {
  frozen_dihedral = ("
  ")
}
set {
  geom_maxiter 3
  g_convergence GAU_LOOSE
}
memory 100GB
set_num_threads(8)
psi4_io.set_default_path("/scratch/bdw2292/Psi4-methanol")
for _ in range(1):
  try:
    optimize('wb97x-d/6-31G*')
    break
  except OptimizationConvergenceError:
    try:
      set opt_coordinates cartesian
      optimize('wb97x-d/6-31G*')
      break
    except OptimizationConvergenceError:
      pass
clean()
--------------------------------------------------------------------------

    Molecular point group: c1
  Charge       = 0
  Multiplicity = 1
  Basis Set: 6-31G*
    Blend: 6-31G*
  Basis Set: (6-31G* AUX)
    Blend: CC-PVDZ-JKFIT
  @DF-RKS Final Energy:  -115.67387810697198
    Total Energy =                       -115.6738781069719835
    Molecular point group: c1
  Basis Set: 6-31G*
    Blend: 6-31G*
  Basis Set: (6-31G* AUX)
    Blend: CC-PVDZ-JKFIT
  Basis Set: 6-31G*
    Blend: 6-31G*
  Basis Set: (6-31G* AUX)
    Blend: CC-PVDZ-JKFIT
  @DF-RKS Final Energy:  -115.67482490868441
    Total Energy =                       -115.6748249086844140
  Basis Set: 6-31G*
    Blend: 6-31G*
  Basis Set: (6-31G* AUX)
    Blend: CC-PVDZ-JKFIT
  Basis Set: 6-31G*
    Blend: 6-31G*
  @DF-RKS Final Energy:  -115.67493546546321
    Total Energy =                       -115.6749354654632072
  @DF-RKS Final Energy:  -115.67387810697187
    Total Energy =                       -115.6738781069718698
  Basis Set: (6-31G* AUX)
    Blend: CC-PVDZ-JKFIT
  Basis Set: 6-31G*
    Blend: 6-31G*
  Basis Set: (6-31G* AUX)
    Blend: CC-PVDZ-JKFIT
  @DF-RKS Final Energy:  -115.67489054206949
    Total Energy =                       -115.6748905420694911
  Basis Set: 6-31G*
    Blend: 6-31G*
  Basis Set: (6-31G* AUX)
    Blend: CC-PVDZ-JKFIT
  Charge       = 0
  Multiplicity = 1
  Basis Set: 6-31G*
    Blend: 6-31G*
  Basis Set: (6-31G* AUX)
    Blend: CC-PVDZ-JKFIT

    Orbital Energies [Eh]
    ---------------------

    Doubly Occupied:

       1A    -19.259821     2A    -10.333599     3A     -1.110276
       4A     -0.774767     5A     -0.590913     6A     -0.518895
       7A     -0.506627     8A     -0.412434     9A     -0.345945

  @DF-RKS Final Energy:  -115.67489054206933

   => Energetics <=

    Nuclear Repulsion Energy =             40.2439320659060584
    One-Electron Energy =                -236.9129047913651789
    Two-Electron Energy =                  91.6528793978211667
    DFT Exchange-Correlation Energy =     -10.6579991795315046
    Empirical Dispersion Energy =          -0.0007980348998663
    VV10 Nonlocal Energy =                  0.0000000000000000
    Total Energy =                       -115.6748905420693347

  Dipole Moment: [D]
     X:    -0.9725      Y:    -1.2107      Z:     1.0508     Total:     1.8750

    Molecular point group: c1
  Basis Set: 6-31G*
    Blend: 6-31G*
  Basis Set: (6-31G* AUX)
    Blend: CC-PVDZ-JKFIT

  -Total Gradient:
     Atom            X                  Y                   Z
    ------   -----------------  -----------------  -----------------
       1        0.002910586934    -0.000451846202     0.000035695163
       2       -0.004743140699    -0.000808915108    -0.001030605265
       3        0.000657905516    -0.000049342028     0.001019761346
       4        0.000772612261     0.000790655332    -0.000333073820
       5       -0.000129454860     0.000654993218     0.000149878105
       6        0.000465811459    -0.000064958934     0.000107054765

    Molecular point group: c1

    Geometry (in Angstrom), charge = 0, multiplicity = 1:

    O            0.692874876376     0.004668252765    -0.028207846764
    C           -0.726847323855     0.037829049556    -0.006950632938
    H           -1.152309426734    -0.719396383190     0.663464011204
    H           -1.114232855087    -0.128617428068    -1.018954146018
    H           -1.068855531804     1.023576735526     0.334407545646
    H            0.993417283326    -0.700075495551     0.551521582790

*** Psi4 exiting successfully. Buy a developer a beer!
