                               Psi4 1.3.2 release

  ==> Input File <==

--------------------------------------------------------------------------
molecule {
0 1
 O    0.672599    0.010576    0.004247
 C   -0.742416    0.035933    0.009708
 H   -1.106162   -0.720624    0.718197
 H   -1.114005   -0.126372   -1.011406
 H   -1.052489    1.033825    0.351153
 H    0.962973   -0.595539   -0.685599
}
set optking {
  frozen_dihedral = ("
  ")
}
set {
  geom_maxiter 3
  g_convergence GAU_LOOSE
}
memory 100GB
set_num_threads(8)
psi4_io.set_default_path("/scratch/bdw2292/Psi4-methanol")
for _ in range(1):
  try:
    optimize('wb97x-d/6-31G*')
    break
  except OptimizationConvergenceError:
    try:
      set opt_coordinates cartesian
      optimize('wb97x-d/6-31G*')
      break
    except OptimizationConvergenceError:
      pass
clean()
--------------------------------------------------------------------------

    Molecular point group: c1
  Charge       = 0
  Multiplicity = 1
  Basis Set: 6-31G*
    Blend: 6-31G*
  Basis Set: (6-31G* AUX)
    Blend: CC-PVDZ-JKFIT
  @DF-RKS Final Energy:  -115.67497658329923
    Total Energy =                       -115.6749765832992125
    Molecular point group: c1
  Basis Set: 6-31G*
    Blend: 6-31G*
  Basis Set: (6-31G* AUX)
    Blend: CC-PVDZ-JKFIT
  Basis Set: 6-31G*
    Blend: 6-31G*
  Basis Set: (6-31G* AUX)
    Blend: CC-PVDZ-JKFIT
  @DF-RKS Final Energy:  -115.67655179930048
    Total Energy =                       -115.6765517993004835
  Basis Set: 6-31G*
    Blend: 6-31G*
  Basis Set: (6-31G* AUX)
    Blend: CC-PVDZ-JKFIT
  Basis Set: 6-31G*
    Blend: 6-31G*
  @DF-RKS Final Energy:  -115.67702761081158
    Total Energy =                       -115.6770276108115922
  @DF-RKS Final Energy:  -115.67497658329921
    Total Energy =                       -115.6749765832992125
  Basis Set: (6-31G* AUX)
    Blend: CC-PVDZ-JKFIT
  Basis Set: 6-31G*
    Blend: 6-31G*
  Basis Set: (6-31G* AUX)
    Blend: CC-PVDZ-JKFIT
  @DF-RKS Final Energy:  -115.67627790555848
    Total Energy =                       -115.6762779055584929
  Basis Set: 6-31G*
    Blend: 6-31G*
  Basis Set: (6-31G* AUX)
    Blend: CC-PVDZ-JKFIT
  Charge       = 0
  Multiplicity = 1
  Basis Set: 6-31G*
    Blend: 6-31G*
  Basis Set: (6-31G* AUX)
    Blend: CC-PVDZ-JKFIT

    Orbital Energies [Eh]
    ---------------------

    Doubly Occupied:

       1A    -19.261187     2A    -10.333542     3A     -1.111111
       4A     -0.774448     5A     -0.589813     6A     -0.521433
       7A     -0.505270     8A     -0.412631     9A     -0.347604

  @DF-RKS Final Energy:  -115.67627790555848

   => Energetics <=

    Nuclear Repulsion Energy =             40.2624165443595174
    One-Electron Energy =                -236.9456993732781029
    Two-Electron Energy =                  91.6649038164893852
    DFT Exchange-Correlation Energy =     -10.6570768856380802
    Empirical Dispersion Energy =          -0.0008220074912070
    VV10 Nonlocal Energy =                  0.0000000000000000
    Total Energy =                       -115.6762779055584787

  Dipole Moment: [D]
     X:    -0.9754      Y:    -1.0365      Z:    -1.1166     Total:     1.8091

    Molecular point group: c1
  Basis Set: 6-31G*
    Blend: 6-31G*
  Basis Set: (6-31G* AUX)
    Blend: CC-PVDZ-JKFIT

  -Total Gradient:
     Atom            X                  Y                   Z
    ------   -----------------  -----------------  -----------------
       1        0.003257402667    -0.001793467762     0.001921263175
       2       -0.005373945262    -0.001207399194    -0.000038141724
       3        0.001331147546     0.000986374703     0.000964675825
       4        0.000756971975     0.000258893437    -0.000551143838
       5       -0.000897605386     0.001208052774    -0.000253468156
       6        0.000725231006     0.000557735094    -0.002042825354

    Molecular point group: c1

    Geometry (in Angstrom), charge = 0, multiplicity = 1:

    O            0.692429476356     0.018423901274     0.012288769550
    C           -0.726249163048     0.018113766093     0.027138286807
    H           -1.121280677271    -0.744006959209     0.712438674038
    H           -1.152323884375    -0.137473134237    -0.973197042214
    H           -1.053751964679     1.001154444279     0.381989028762
    H            0.985322619319    -0.627752543557    -0.639393282784

*** Psi4 exiting successfully. Buy a developer a beer!
