                               Psi4 1.3.2 release

  ==> Input File <==

--------------------------------------------------------------------------
molecule {
0 1
O            0.690256010091     0.021077645631     0.007120983199
C           -0.722885496089     0.029155852584     0.009879650728
H           -1.147666658208    -0.713337175374     0.701390439387
H           -1.147700645448    -0.140835903928    -0.990406038765
H           -1.030821790189     1.021944315270     0.345846751738
H            0.978599067489    -0.849442509537    -0.287481631922
}
memory 700MB
set_num_threads(1)
psi4_io.set_default_path("/scratch/bdw2292/Psi4-methanol")
set freeze_core True
set PROPERTIES_ORIGIN ["COM"]
E, wfn = energy('mp2/6-311G**',properties=['dipole'],return_wfn=True)
fchk(wfn, "methanol-dma.fchk")
clean()
--------------------------------------------------------------------------

    Molecular point group: c1

    Geometry (in Angstrom), charge = 0, multiplicity = 1:

       Center              X                  Y                   Z               Mass
    ------------   -----------------  -----------------  -----------------  -----------------
         O            0.690256010091     0.021077645631     0.007120983199    15.994914619570
         C           -0.722885496089     0.029155852584     0.009879650728    12.000000000000
         H           -1.147666658208    -0.713337175374     0.701390439387     1.007825032230
         H           -1.147700645448    -0.140835903928    -0.990406038765     1.007825032230
         H           -1.030821790189     1.021944315270     0.345846751738     1.007825032230
         H            0.978599067489    -0.849442509537    -0.287481631922     1.007825032230

  Charge       = 0
  Multiplicity = 1
  Basis Set: 6-311G**
    Blend: 6-311G**
  Basis Set: (6-311G** AUX)
    Blend: CC-PVTZ-JKFIT

    Orbital Energies [Eh]
    ---------------------

    Doubly Occupied:

       1A    -20.545741     2A    -11.270907     3A     -1.353495
       4A     -0.920968     5A     -0.686961     6A     -0.616168
       7A     -0.589532     8A     -0.498425     9A     -0.445780

  @DF-RHF Final Energy:  -115.07471995254971

   => Energetics <=

    Nuclear Repulsion Energy =             40.3510690759957527
    One-Electron Energy =                -236.9956221439042565
    Two-Electron Energy =                  81.5698331153587901
    Total Energy =                       -115.0747199525497138

  Dipole Moment: [D]
     X:    -1.1133      Y:    -1.4350      Z:    -0.4856     Total:     1.8800

  Basis Set: (6-311G** AUX)
    Blend: CC-PVTZ-RI
	 Reference Energy          =    -115.0747199525497138 [Eh]
	 Singles Energy            =      -0.0000000000000000 [Eh]
	 Same-Spin Energy          =      -0.0852217442030819 [Eh]
	 Opposite-Spin Energy      =      -0.2763122170283420 [Eh]
	 Correlation Energy        =      -0.3615339612314240 [Eh]
	 Total Energy              =    -115.4362539137811439 [Eh]

	 ================> DF-SCS-MP2 Energies <==================
	-----------------------------------------------------------
	 SCS Same-Spin Scale       =       0.3333333333333333 [-]
	 SCS Opposite-Spin Scale   =       1.2000000000000000 [-]
	 SCS Same-Spin Energy      =      -0.0284072480676940 [Eh]
	 SCS Opposite-Spin Energy  =      -0.3315746604340104 [Eh]
	 SCS Correlation Energy    =      -0.3599819085017044 [Eh]
	 SCS Total Energy          =    -115.4347018610514226 [Eh]
	-----------------------------------------------------------

*** Psi4 exiting successfully. Buy a developer a beer!
