                               Psi4 1.3.2 release

  ==> Input File <==

--------------------------------------------------------------------------
molecule {
0 1
O            0.690256010091     0.021077645631     0.007120983199
C           -0.722885496089     0.029155852584     0.009879650728
H           -1.147666658208    -0.713337175374     0.701390439387
H           -1.147700645448    -0.140835903928    -0.990406038765
H           -1.030821790189     1.021944315270     0.345846751738
H            0.978599067489    -0.849442509537    -0.287481631922
}
memory 100GB
set_num_threads(8)
psi4_io.set_default_path("/scratch/bdw2292/Psi4-methanol")
set maxiter 300
set freeze_core True
set PROPERTIES_ORIGIN ["COM"]
E, wfn = properties('mp2/aug-cc-pVTZ',properties=['dipole'],return_wfn=True)
oeprop(wfn,"GRID_ESP","WIBERG_LOWDIN_INDICES","MULLIKEN_CHARGES")
clean()
--------------------------------------------------------------------------

    Molecular point group: c1
  Charge       = 0
  Multiplicity = 1
  Basis Set: AUG-CC-PVTZ
    Blend: AUG-CC-PVTZ
  Basis Set: (AUG-CC-PVTZ AUX)
    Blend: AUG-CC-PVTZ-JKFIT

    Orbital Energies [Eh]
    ---------------------

    Doubly Occupied:

       1A    -20.560731     2A    -11.272838     3A     -1.360536
       4A     -0.923445     5A     -0.692432     6A     -0.619740
       7A     -0.594505     8A     -0.503112     9A     -0.450879

  @DF-RHF Final Energy:  -115.09176240043340

   => Energetics <=

    Nuclear Repulsion Energy =             40.3510690759957527
    One-Electron Energy =                -236.9292258353846705
    Two-Electron Energy =                  81.4863943589555220
    Total Energy =                       -115.0917624004333959
  Basis Set: (AUG-CC-PVTZ AUX)
    Blend: AUG-CC-PVTZ-RI
    Molecular point group: c1

    Geometry (in Angstrom), charge = 0, multiplicity = 1:

       Center              X                  Y                   Z               Mass
    ------------   -----------------  -----------------  -----------------  -----------------
         O            0.690256010091     0.021077645631     0.007120983199    15.994914619570
         C           -0.722885496089     0.029155852584     0.009879650728    12.000000000000
         H           -1.147666658208    -0.713337175374     0.701390439387     1.007825032230
         H           -1.147700645448    -0.140835903928    -0.990406038765     1.007825032230
         H           -1.030821790189     1.021944315270     0.345846751738     1.007825032230
         H            0.978599067489    -0.849442509537    -0.287481631922     1.007825032230

  Basis Set: AUG-CC-PVTZ
    Blend: AUG-CC-PVTZ
  Basis Set: (AUG-CC-PVTZ AUX)
    Blend: AUG-CC-PVTZ-JKFIT
	 Reference Energy          =    -115.0917624004333959 [Eh]
	 Singles Energy            =      -0.0000000000000000 [Eh]
	 Same-Spin Energy          =      -0.1001030975589504 [Eh]
	 Opposite-Spin Energy      =      -0.3368561319648436 [Eh]
	 Correlation Energy        =      -0.4369592295237940 [Eh]
	 Total Energy              =    -115.5287216299571895 [Eh]

	 ================> DF-SCS-MP2 Energies <==================
	-----------------------------------------------------------
	 SCS Same-Spin Scale       =       0.3333333333333333 [-]
	 SCS Opposite-Spin Scale   =       1.2000000000000000 [-]
	 SCS Same-Spin Energy      =      -0.0333676991863168 [Eh]
	 SCS Opposite-Spin Energy  =      -0.4042273583578123 [Eh]
	 SCS Correlation Energy    =      -0.4375950575441291 [Eh]
	 SCS Total Energy          =    -115.5293574579775253 [Eh]
	-----------------------------------------------------------

  Dipole Moment: [D]
     X:    -0.9910      Y:    -1.2835      Z:    -0.4343     Total:     1.6787

  Mulliken Charges: (a.u.)
   Center  Symbol    Alpha    Beta     Spin     Total
       1     O     4.22449  4.22449  0.00000 -0.44898
       2     C     3.35924  3.35924  0.00000 -0.71849
       3     H     0.34254  0.34254  0.00000  0.31492
       4     H     0.34254  0.34254  0.00000  0.31492
       5     H     0.32866  0.32866  0.00000  0.34268
       6     H     0.40252  0.40252  0.00000  0.19495

   Total alpha =  9.00000, Total beta =  9.00000, Total charge = -0.00000

*** Psi4 exiting successfully. Buy a developer a beer!
