                               Psi4 1.3.2 release

  ==> Input File <==

--------------------------------------------------------------------------
molecule {
0 1
 O    0.708000   -0.000000    0.000000
 C   -0.708000   -0.000000    0.000000
 H   -1.073000   -0.769000    0.685000
 H   -1.073000   -0.195000   -1.011000
 H   -1.063000    0.979000    0.331000
 H    0.994000   -0.880000   -0.298000
}
set {
  geom_maxiter 3
  g_convergence GAU_LOOSE
}
memory 700MB
set_num_threads(1)
psi4_io.set_default_path("/scratch/bdw2292/Psi4-methanol")
for _ in range(1):
  try:
    optimize('wb97x-d/6-31G*')
    break
  except OptimizationConvergenceError:
    try:
      set opt_coordinates cartesian
      optimize('wb97x-d/6-31G*')
      break
    except OptimizationConvergenceError:
      pass
clean()
--------------------------------------------------------------------------

    Molecular point group: c1
  Charge       = 0
  Multiplicity = 1
  Basis Set: 6-31G*
    Blend: 6-31G*
  Basis Set: (6-31G* AUX)
    Blend: CC-PVDZ-JKFIT
  @DF-RKS Final Energy:  -115.67619924280936
    Total Energy =                       -115.6761992428093606
    Molecular point group: c1
  Basis Set: 6-31G*
    Blend: 6-31G*
  Basis Set: (6-31G* AUX)
    Blend: CC-PVDZ-JKFIT
  Basis Set: 6-31G*
    Blend: 6-31G*
  Basis Set: (6-31G* AUX)
    Blend: CC-PVDZ-JKFIT
  @DF-RKS Final Energy:  -115.67707328832857
    Total Energy =                       -115.6770732883285717
  Basis Set: 6-31G*
    Blend: 6-31G*
  Basis Set: (6-31G* AUX)
    Blend: CC-PVDZ-JKFIT
  Charge       = 0
  Multiplicity = 1
  Basis Set: 6-31G*
    Blend: 6-31G*
  Basis Set: (6-31G* AUX)
    Blend: CC-PVDZ-JKFIT

    Orbital Energies [Eh]
    ---------------------

    Doubly Occupied:

       1A    -19.262524     2A    -10.333177     3A     -1.113779
       4A     -0.774483     5A     -0.591256     6A     -0.521558
       7A     -0.505415     8A     -0.413707     9A     -0.348650

  @DF-RKS Final Energy:  -115.67717703783404

   => Energetics <=

    Nuclear Repulsion Energy =             40.3510690759989075
    One-Electron Energy =                -237.1087405169099043
    Two-Electron Energy =                  91.7399886396461852
    DFT Exchange-Correlation Energy =     -10.6586564861828688
    Empirical Dispersion Energy =          -0.0008377503863698
    VV10 Nonlocal Energy =                  0.0000000000000000
    Total Energy =                       -115.6771770378340420

  Dipole Moment: [D]
     X:    -0.9555      Y:    -1.3959      Z:    -0.4724     Total:     1.7563

    Molecular point group: c1
  Basis Set: 6-31G*
    Blend: 6-31G*
  Basis Set: (6-31G* AUX)
    Blend: CC-PVDZ-JKFIT

  -Total Gradient:
     Atom            X                  Y                   Z
    ------   -----------------  -----------------  -----------------
       1        0.001856450266     0.000064560206     0.000022047502
       2       -0.002131466468    -0.000214157555    -0.000069432137
       3       -0.000008556224     0.000093808208    -0.000023773175
       4       -0.000010218422     0.000059184602     0.000072166143
       5        0.000063517288     0.000020416908     0.000007186929
       6       -0.000027854847     0.000004021862     0.000001267517

  **** Optimization is complete! (in 3 steps) ****
    Final optimized geometry and variables:
    Molecular point group: c1

    Geometry (in Angstrom), charge = 0, multiplicity = 1:

    O            0.690256010091     0.021077645631     0.007120983199
    C           -0.722885496089     0.029155852584     0.009879650728
    H           -1.147666658208    -0.713337175374     0.701390439387
    H           -1.147700645448    -0.140835903928    -0.990406038765
    H           -1.030821790189     1.021944315270     0.345846751738
    H            0.978599067489    -0.849442509537    -0.287481631922

*** Psi4 exiting successfully. Buy a developer a beer!
