                               Psi4 1.3.2 release

  ==> Input File <==

--------------------------------------------------------------------------
molecule {
0 1
 P    0.070000   -0.082000   -0.337000
 O    1.281000    0.715000    0.365000
 O   -0.560000   -0.940000    0.874000
 O   -1.035000    1.056000   -0.616000
 O    0.457000   -0.892000   -1.534000
 C    2.439000   -0.039000    0.661000
 C   -1.596000   -1.838000    0.530000
 C   -1.371000    1.940000    0.432000
 H    2.903000   -0.393000   -0.264000
 H    2.187000   -0.889000    1.300000
 H    3.149000    0.602000    1.189000
 H   -2.405000   -1.308000    0.020000
 H   -1.990000   -2.286000    1.446000
 H   -1.206000   -2.631000   -0.113000
 H   -1.662000    1.386000    1.329000
 H   -2.216000    2.555000    0.112000
 H   -0.527000    2.597000    0.657000
}
set {
  geom_maxiter 3
  g_convergence GAU_LOOSE
}
memory 20GB
set_num_threads(4)
psi4_io.set_default_path("/scratch/bdw2292/Psi4-TrimethylPhosphate")
for _ in range(1):
  try:
    optimize('wb97x-d/6-31G*')
    break
  except OptimizationConvergenceError:
    try:
      set opt_coordinates cartesian
      optimize('wb97x-d/6-31G*')
      break
    except OptimizationConvergenceError:
      pass
clean()
--------------------------------------------------------------------------

    Molecular point group: c1
  Charge       = 0
  Multiplicity = 1
  Basis Set: 6-31G*
    Blend: 6-31G*
  Basis Set: (6-31G* AUX)
    Blend: CC-PVDZ-JKFIT
  @DF-RKS Final Energy:  -761.89537824432682
    Total Energy =                       -761.8953782443268210
    Molecular point group: c1
  Basis Set: 6-31G*
    Blend: 6-31G*
  Basis Set: (6-31G* AUX)
    Blend: CC-PVDZ-JKFIT
  Basis Set: 6-31G*
    Blend: 6-31G*
  Basis Set: (6-31G* AUX)
    Blend: CC-PVDZ-JKFIT
  @DF-RKS Final Energy:  -761.89866821557371
    Total Energy =                       -761.8986682155737071
  Basis Set: 6-31G*
    Blend: 6-31G*
  Basis Set: (6-31G* AUX)
    Blend: CC-PVDZ-JKFIT
  Basis Set: 6-31G*
    Blend: 6-31G*
  @DF-RKS Final Energy:  -761.89904687398416
    Total Energy =                       -761.8990468739841617
  @DF-RKS Final Energy:  -761.89537824432659
    Total Energy =                       -761.8953782443265936
  Basis Set: (6-31G* AUX)
    Blend: CC-PVDZ-JKFIT
  Basis Set: 6-31G*
    Blend: 6-31G*
  Basis Set: (6-31G* AUX)
    Blend: CC-PVDZ-JKFIT
  @DF-RKS Final Energy:  -761.89796702592901
    Total Energy =                       -761.8979670259290060
  Basis Set: 6-31G*
    Blend: 6-31G*
  Basis Set: (6-31G* AUX)
    Blend: CC-PVDZ-JKFIT
  Charge       = 0
  Multiplicity = 1
  Basis Set: 6-31G*
    Blend: 6-31G*
  Basis Set: (6-31G* AUX)
    Blend: CC-PVDZ-JKFIT

    Orbital Energies [Eh]
    ---------------------

    Doubly Occupied:

       1A    -77.385716     2A    -19.307119     3A    -19.306817
       4A    -19.305760     5A    -19.228540     6A    -10.357184
       7A    -10.356925     8A    -10.356379     9A     -6.794466
      10A     -4.944117    11A     -4.943675    12A     -4.941546
      13A     -1.204229    14A     -1.141247    15A     -1.139691
      16A     -1.058706    17A     -0.833547    18A     -0.804922
      19A     -0.797768    20A     -0.672112    21A     -0.617253
      22A     -0.614991    23A     -0.574211    24A     -0.564501
      25A     -0.557525    26A     -0.539453    27A     -0.535418
      28A     -0.530568    29A     -0.490419    30A     -0.457224
      31A     -0.441512    32A     -0.429791    33A     -0.410379
      34A     -0.403457    35A     -0.392645    36A     -0.376388
      37A     -0.366692

  @DF-RKS Final Energy:  -761.89889158121662

   => Energetics <=

    Nuclear Repulsion Energy =            551.1281236975462434
    One-Electron Energy =               -2142.5389937945788006
    Two-Electron Energy =                 883.9905846448476723
    DFT Exchange-Correlation Energy =     -54.4711346369526694
    Empirical Dispersion Energy =          -0.0074714920790728
    VV10 Nonlocal Energy =                  0.0000000000000000
    Total Energy =                       -761.8988915812166169

  Dipole Moment: [D]
     X:    -0.8338      Y:     0.4561      Z:     3.5821     Total:     3.7060

    Molecular point group: c1
  Basis Set: 6-31G*
    Blend: 6-31G*
  Basis Set: (6-31G* AUX)
    Blend: CC-PVDZ-JKFIT

  -Total Gradient:
     Atom            X                  Y                   Z
    ------   -----------------  -----------------  -----------------
       1       -0.001407889688    -0.002360795484    -0.000364979954
       2        0.000678715803     0.001495636761    -0.001296318823
       3        0.000671031596     0.000322667525     0.000069012252
       4       -0.002106184093     0.000846335344    -0.000281315145
       5        0.002062807219     0.000724010291     0.002071674700
       6       -0.000270084325    -0.001176951578    -0.000822105944
       7        0.000240666169     0.000128541347    -0.000721102393
       8        0.000839195681    -0.000114111734     0.000188882203
       9        0.000007905808    -0.000161366789     0.000024006636
      10        0.000229484343    -0.000676932834     0.000234990627
      11        0.000195608574     0.000852940363     0.000810697305
      12       -0.000603013068     0.000140891225    -0.000513741587
      13       -0.000240210967     0.000093231658     0.001051528047
      14       -0.000168181487    -0.000037198387    -0.000235602776
      15       -0.000150033579    -0.000053724923     0.000846473406
      16       -0.000563044101     0.000064628111    -0.000412318079
      17        0.000406824905     0.000399209153     0.000588111579

    Molecular point group: c1

    Geometry (in Angstrom), charge = 0, multiplicity = 1:

    P            0.092301987352    -0.065785183911    -0.361850972836
    O            1.274480489812     0.709369392786     0.383326593299
    O           -0.521204497922    -0.915388854741     0.861602573784
    O           -0.958255250947     1.106599912284    -0.621528223574
    O            0.439661244709    -0.841216314318    -1.557742617201
    C            2.467034942138    -0.021855685544     0.686887166451
    C           -1.559396279591    -1.850055420886     0.551404712415
    C           -1.334463922983     1.980488591668     0.446639911090
    H            2.923861088017    -0.396942465201    -0.232388536317
    H            2.243478889151    -0.855518607227     1.360431099890
    H            3.138626300717     0.680149791616     1.182435032383
    H           -2.406881560477    -1.342241835589     0.077155015148
    H           -1.878906479927    -2.282481344487     1.500565675204
    H           -1.183822534441    -2.631282712639    -0.114254600098
    H           -1.655559350253     1.407276661982     1.322363256470
    H           -2.163932040978     2.581029991796     0.072178263352
    H           -0.496044664124     2.626839112569     0.718865810755

*** Psi4 exiting successfully. Buy a developer a beer!
