                               Psi4 1.3.2 release

  ==> Input File <==

--------------------------------------------------------------------------
molecule {
0 1
P            0.092301987352    -0.065785183911    -0.361850972836
O            1.274480489812     0.709369392786     0.383326593299
O           -0.521204497922    -0.915388854741     0.861602573784
O           -0.958255250947     1.106599912284    -0.621528223574
O            0.439661244709    -0.841216314318    -1.557742617201
C            2.467034942138    -0.021855685544     0.686887166451
C           -1.559396279591    -1.850055420886     0.551404712415
C           -1.334463922983     1.980488591668     0.446639911090
H            2.923861088017    -0.396942465201    -0.232388536317
H            2.243478889151    -0.855518607227     1.360431099890
H            3.138626300717     0.680149791616     1.182435032383
H           -2.406881560477    -1.342241835589     0.077155015148
H           -1.878906479927    -2.282481344487     1.500565675204
H           -1.183822534441    -2.631282712639    -0.114254600098
H           -1.655559350253     1.407276661982     1.322363256470
H           -2.163932040978     2.581029991796     0.072178263352
H           -0.496044664124     2.626839112569     0.718865810755
}
memory 20GB
set_num_threads(4)
psi4_io.set_default_path("/scratch/bdw2292/Psi4-TrimethylPhosphate")
set freeze_core True
set PROPERTIES_ORIGIN ["COM"]
E, wfn = energy('mp2/6-311G**',properties=['dipole'],return_wfn=True)
fchk(wfn, "TrimethylPhosphate-dma.fchk")
clean()
--------------------------------------------------------------------------

    Molecular point group: c1

    Geometry (in Angstrom), charge = 0, multiplicity = 1:

       Center              X                  Y                   Z               Mass
    ------------   -----------------  -----------------  -----------------  -----------------
         P            0.092301987352    -0.065785183911    -0.361850972836    30.973761998420
         O            1.274480489812     0.709369392786     0.383326593299    15.994914619570
         O           -0.521204497922    -0.915388854741     0.861602573784    15.994914619570
         O           -0.958255250947     1.106599912284    -0.621528223574    15.994914619570
         O            0.439661244709    -0.841216314318    -1.557742617201    15.994914619570
         C            2.467034942138    -0.021855685544     0.686887166451    12.000000000000
         C           -1.559396279591    -1.850055420886     0.551404712415    12.000000000000
         C           -1.334463922983     1.980488591668     0.446639911090    12.000000000000
         H            2.923861088017    -0.396942465201    -0.232388536317     1.007825032230
         H            2.243478889151    -0.855518607227     1.360431099890     1.007825032230
         H            3.138626300717     0.680149791616     1.182435032383     1.007825032230
         H           -2.406881560477    -1.342241835589     0.077155015148     1.007825032230
         H           -1.878906479927    -2.282481344487     1.500565675204     1.007825032230
         H           -1.183822534441    -2.631282712639    -0.114254600098     1.007825032230
         H           -1.655559350253     1.407276661982     1.322363256470     1.007825032230
         H           -2.163932040978     2.581029991796     0.072178263352     1.007825032230
         H           -0.496044664124     2.626839112569     0.718865810755     1.007825032230

  Charge       = 0
  Multiplicity = 1
  Basis Set: 6-311G**
    Blend: 6-311G**
  Basis Set: (6-311G** AUX)
    Blend: CC-PVTZ-JKFIT

    Orbital Energies [Eh]
    ---------------------

    Doubly Occupied:

       1A    -80.103974     2A    -20.592450     3A    -20.591943
       4A    -20.590931     5A    -20.506152     6A    -11.297750
       7A    -11.296416     8A    -11.296353     9A     -7.627385
      10A     -5.525694    11A     -5.525381    12A     -5.525085
      13A     -1.459640    14A     -1.388235    15A     -1.387192
      16A     -1.300017    17A     -0.986069    18A     -0.957082
      19A     -0.949987    20A     -0.790872    21A     -0.721631
      22A     -0.719004    23A     -0.678888    24A     -0.667042
      25A     -0.653908    26A     -0.632240    27A     -0.623443
      28A     -0.618148    29A     -0.585608    30A     -0.541765
      31A     -0.528846    32A     -0.515757    33A     -0.498523
      34A     -0.491236    35A     -0.483640    36A     -0.464238
      37A     -0.456724

  @DF-RHF Final Energy:  -759.22173174016882

   => Energetics <=

    Nuclear Repulsion Energy =            551.0764268123546117
    One-Electron Energy =               -2141.4378188033697370
    Two-Electron Energy =                 831.1396602508463047
    Total Energy =                       -759.2217317401688206

  Dipole Moment: [D]
     X:    -0.9064      Y:     0.4594      Z:     4.0043     Total:     4.1312

  Basis Set: (6-311G** AUX)
    Blend: CC-PVTZ-RI
	 Reference Energy          =    -759.2217317401688206 [Eh]
	 Singles Energy            =      -0.0000000000000000 [Eh]
	 Same-Spin Energy          =      -0.3437942431237062 [Eh]
	 Opposite-Spin Energy      =      -1.0115843835166904 [Eh]
	 Correlation Energy        =      -1.3553786266403967 [Eh]
	 Total Energy              =    -760.5771103668091655 [Eh]

	 ================> DF-SCS-MP2 Energies <==================
	-----------------------------------------------------------
	 SCS Same-Spin Scale       =       0.3333333333333333 [-]
	 SCS Opposite-Spin Scale   =       1.2000000000000000 [-]
	 SCS Same-Spin Energy      =      -0.1145980810412354 [Eh]
	 SCS Opposite-Spin Energy  =      -1.2139012602200285 [Eh]
	 SCS Correlation Energy    =      -1.3284993412612640 [Eh]
	 SCS Total Energy          =    -760.5502310814300699 [Eh]
	-----------------------------------------------------------

*** Psi4 exiting successfully. Buy a developer a beer!
