                               Psi4 1.3.2 release

  ==> Input File <==

--------------------------------------------------------------------------
molecule {
0 1
N           -2.336501418057    -0.000021556859     0.140808667728
C           -0.941280412819     0.000061899188     0.033871166130
C           -0.228413285235     1.204599056815     0.005451492101
C           -0.228260119540    -1.204586539341     0.008229535861
C            1.160458685073     1.199220077337    -0.045370463420
C            1.160481630562    -1.199226241413    -0.042640353526
C            1.867162898553     0.000043661947    -0.071873033398
H           -0.768535180326     2.148215063991     0.031172094689
H           -0.768386523905    -2.148193551991     0.036063462017
H            1.694220333177     2.145033517858    -0.066900682034
H            1.694446341550    -2.145007308246    -0.062062709142
H            2.951842503126    -0.000074893705    -0.114719483261
H           -2.780467955008    -0.833126657864    -0.220306112602
H           -2.780781281506     0.832120801328    -0.222177733007
}
memory 700MB
set_num_threads(1)
psi4_io.set_default_path("/scratch/bdw2292")
set freeze_core True
set PROPERTIES_ORIGIN ["COM"]
E, wfn = energy('mp2/6-311G**',properties=['dipole'],return_wfn=True)
fchk(wfn, "aniline-dma.fchk")
clean()
--------------------------------------------------------------------------

    Molecular point group: c1

    Geometry (in Angstrom), charge = 0, multiplicity = 1:

       Center              X                  Y                   Z               Mass
    ------------   -----------------  -----------------  -----------------  -----------------
         N           -2.336501418057    -0.000021556859     0.140808667728    14.003074004430
         C           -0.941280412819     0.000061899188     0.033871166130    12.000000000000
         C           -0.228413285235     1.204599056815     0.005451492101    12.000000000000
         C           -0.228260119540    -1.204586539341     0.008229535861    12.000000000000
         C            1.160458685073     1.199220077337    -0.045370463420    12.000000000000
         C            1.160481630562    -1.199226241413    -0.042640353526    12.000000000000
         C            1.867162898553     0.000043661947    -0.071873033398    12.000000000000
         H           -0.768535180326     2.148215063991     0.031172094689     1.007825032230
         H           -0.768386523905    -2.148193551991     0.036063462017     1.007825032230
         H            1.694220333177     2.145033517858    -0.066900682034     1.007825032230
         H            1.694446341550    -2.145007308246    -0.062062709142     1.007825032230
         H            2.951842503126    -0.000074893705    -0.114719483261     1.007825032230
         H           -2.780467955008    -0.833126657864    -0.220306112602     1.007825032230
         H           -2.780781281506     0.832120801328    -0.222177733007     1.007825032230

  Charge       = 0
  Multiplicity = 1
  Basis Set: 6-311G**
    Blend: 6-311G**
  Basis Set: (6-311G** AUX)
    Blend: CC-PVTZ-JKFIT

    Orbital Energies [Eh]
    ---------------------

    Doubly Occupied:

       1A    -15.557685     2A    -11.275972     3A    -11.232975
       4A    -11.232941     5A    -11.221352     6A    -11.221328
       7A    -11.216922     8A     -1.221151     9A     -1.125059
      10A     -1.010308    11A     -0.983885    12A     -0.829339
      13A     -0.810056    14A     -0.702588    15A     -0.681323
      16A     -0.652422    17A     -0.596091    18A     -0.590572
      19A     -0.579196    20A     -0.531518    21A     -0.504712
      22A     -0.486457    23A     -0.446194    24A     -0.334676
      25A     -0.292914

  @DF-RHF Final Energy:  -285.79920919474216

   => Energetics <=

    Nuclear Repulsion Energy =            271.6478703183228731
    One-Electron Energy =                -924.2188872844531033
    Two-Electron Energy =                 366.7718077713880120
    Total Energy =                       -285.7992091947421613

  Dipole Moment: [D]
     X:    -1.0151      Y:    -0.0015      Z:    -1.1147     Total:     1.5076

  Basis Set: (6-311G** AUX)
    Blend: CC-PVTZ-RI
	 Reference Energy          =    -285.7992091947421613 [Eh]
	 Singles Energy            =      -0.0000000000000000 [Eh]
	 Same-Spin Energy          =      -0.2636087177470290 [Eh]
	 Opposite-Spin Energy      =      -0.7413454501908708 [Eh]
	 Correlation Energy        =      -1.0049541679378999 [Eh]
	 Total Energy              =    -286.8041633626800717 [Eh]

	 ================> DF-SCS-MP2 Energies <==================
	-----------------------------------------------------------
	 SCS Same-Spin Scale       =       0.3333333333333333 [-]
	 SCS Opposite-Spin Scale   =       1.2000000000000000 [-]
	 SCS Same-Spin Energy      =      -0.0878695725823430 [Eh]
	 SCS Opposite-Spin Energy  =      -0.8896145402290450 [Eh]
	 SCS Correlation Energy    =      -0.9774841128113880 [Eh]
	 SCS Total Energy          =    -286.7766933075535576 [Eh]
	-----------------------------------------------------------

*** Psi4 exiting successfully. Buy a developer a beer!
