                               Psi4 1.3.2 release

  ==> Input File <==

--------------------------------------------------------------------------
molecule {
0 1
 N   -2.409000   -0.000000    0.179000
 C   -1.020000   -0.000000    0.005000
 C   -0.307000    1.201000    0.033000
 C   -0.307000   -1.202000    0.035000
 C    1.090000    1.204000   -0.011000
 C    1.090000   -1.205000   -0.008000
 C    1.789000   -0.000000   -0.040000
 H   -0.835000    2.149000    0.090000
 H   -0.834000   -2.149000    0.095000
 H    1.630000    2.147000   -0.006000
 H    1.630000   -2.147000   -0.001000
 H    2.875000   -0.000000   -0.066000
 H   -2.861000   -0.843000   -0.160000
 H   -2.861000    0.842000   -0.162000
}
set {
  geom_maxiter 3
  g_convergence GAU_LOOSE
}
memory 700MB
set_num_threads(1)
psi4_io.set_default_path("/scratch/bdw2292")
for _ in range(1):
  try:
    optimize('wb97x-d/6-31G*')
    break
  except OptimizationConvergenceError:
    try:
      set opt_coordinates cartesian
      optimize('wb97x-d/6-31G*')
      break
    except OptimizationConvergenceError:
      pass
clean()
--------------------------------------------------------------------------

    Molecular point group: c1
  Charge       = 0
  Multiplicity = 1
  Basis Set: 6-31G*
    Blend: 6-31G*
  Basis Set: (6-31G* AUX)
    Blend: CC-PVDZ-JKFIT
  @DF-RKS Final Energy:  -287.50115941164751
    Total Energy =                       -287.5011594116475067
    Molecular point group: c1
  Basis Set: 6-31G*
    Blend: 6-31G*
  Basis Set: (6-31G* AUX)
    Blend: CC-PVDZ-JKFIT
  Basis Set: 6-31G*
    Blend: 6-31G*
  Basis Set: (6-31G* AUX)
    Blend: CC-PVDZ-JKFIT
  @DF-RKS Final Energy:  -287.50231322021654
    Total Energy =                       -287.5023132202165357
  Basis Set: 6-31G*
    Blend: 6-31G*
  Basis Set: (6-31G* AUX)
    Blend: CC-PVDZ-JKFIT
  Charge       = 0
  Multiplicity = 1
  Basis Set: 6-31G*
    Blend: 6-31G*
  Basis Set: (6-31G* AUX)
    Blend: CC-PVDZ-JKFIT

    Orbital Energies [Eh]
    ---------------------

    Doubly Occupied:

       1A    -14.452716     2A    -10.335225     3A    -10.293968
       4A    -10.293954     5A    -10.288473     6A    -10.288462
       7A    -10.283667     8A     -1.014598     9A     -0.929961
      10A     -0.835675    11A     -0.816092    12A     -0.698486
      13A     -0.683035    14A     -0.607251    15A     -0.589476
      16A     -0.558272    17A     -0.510063    18A     -0.504136
      19A     -0.494767    20A     -0.464400    21A     -0.430651
      22A     -0.413705    23A     -0.387790    24A     -0.318178
      25A     -0.272655

  @DF-RKS Final Energy:  -287.50248947090000

   => Energetics <=

    Nuclear Repulsion Energy =            271.6478703183191215
    One-Electron Energy =                -925.2029745000703542
    Two-Electron Energy =                 394.9086446070443799
    DFT Exchange-Correlation Energy =     -28.8503657960279902
    Empirical Dispersion Energy =          -0.0056641001652193
    VV10 Nonlocal Energy =                  0.0000000000000000
    Total Energy =                       -287.5024894709000023

  Dipole Moment: [D]
     X:    -1.1796      Y:    -0.0016      Z:    -1.1862     Total:     1.6728

    Molecular point group: c1
  Basis Set: 6-31G*
    Blend: 6-31G*
  Basis Set: (6-31G* AUX)
    Blend: CC-PVDZ-JKFIT

  -Total Gradient:
     Atom            X                  Y                   Z
    ------   -----------------  -----------------  -----------------
       1       -0.001462003356    -0.000016428793     0.000542516409
       2        0.001809938451     0.000059704620     0.000028511451
       3       -0.000490178201    -0.000435908737    -0.000240557052
       4       -0.000392437594     0.000414473418    -0.000237109014
       5        0.000232414234     0.000110078231     0.000170657618
       6        0.000123162587    -0.000148582795     0.000174661356
       7       -0.000438699405     0.000058922747    -0.000073238355
       8        0.000092582953     0.000126362012    -0.000002071576
       9        0.000076895995    -0.000153106207    -0.000003877441
      10       -0.000054688035    -0.000124941846     0.000026729476
      11       -0.000035821895     0.000110410379     0.000024074902
      12        0.000185585536    -0.000009183467    -0.000083221761
      13        0.000141383461     0.000144179551    -0.000156598507
      14        0.000131884650    -0.000136031360    -0.000160727390

  **** Optimization is complete! (in 3 steps) ****
    Final optimized geometry and variables:
    Molecular point group: c1

    Geometry (in Angstrom), charge = 0, multiplicity = 1:

    N           -2.336501418057    -0.000021556859     0.140808667728
    C           -0.941280412819     0.000061899188     0.033871166130
    C           -0.228413285235     1.204599056815     0.005451492101
    C           -0.228260119540    -1.204586539341     0.008229535861
    C            1.160458685073     1.199220077337    -0.045370463420
    C            1.160481630562    -1.199226241413    -0.042640353526
    C            1.867162898553     0.000043661947    -0.071873033398
    H           -0.768535180326     2.148215063991     0.031172094689
    H           -0.768386523905    -2.148193551991     0.036063462017
    H            1.694220333177     2.145033517858    -0.066900682034
    H            1.694446341550    -2.145007308246    -0.062062709142
    H            2.951842503126    -0.000074893705    -0.114719483261
    H           -2.780467955008    -0.833126657864    -0.220306112602
    H           -2.780781281506     0.832120801328    -0.222177733007

*** Psi4 exiting successfully. Buy a developer a beer!
