                               Psi4 1.3.2 release

  ==> Input File <==

--------------------------------------------------------------------------
molecule {
0 1
C           -0.000083764083     0.000081651469     0.000094976277
H           -0.676518000448     0.853273320810    -0.085717298014
H           -0.394037952365    -0.836371696876    -0.581791466330
H            0.086306793126    -0.293962567185     1.048557272102
H            0.985246524273     0.276088733191    -0.382179374017
}
memory 700MB
set_num_threads(1)
psi4_io.set_default_path("/scratch/bdw2292/Psi4-methane")
set freeze_core True
set PROPERTIES_ORIGIN ["COM"]
E, wfn = energy('mp2/6-311G**',properties=['dipole'],return_wfn=True)
fchk(wfn, "methane-dma.fchk")
clean()
--------------------------------------------------------------------------

    Molecular point group: c1

    Geometry (in Angstrom), charge = 0, multiplicity = 1:

       Center              X                  Y                   Z               Mass
    ------------   -----------------  -----------------  -----------------  -----------------
         C           -0.000083764083     0.000081651469     0.000094976277    12.000000000000
         H           -0.676518000448     0.853273320810    -0.085717298014     1.007825032230
         H           -0.394037952365    -0.836371696876    -0.581791466330     1.007825032230
         H            0.086306793126    -0.293962567185     1.048557272102     1.007825032230
         H            0.985246524273     0.276088733191    -0.382179374017     1.007825032230

  Charge       = 0
  Multiplicity = 1
  Basis Set: 6-311G**
    Blend: 6-311G**
  Basis Set: (6-311G** AUX)
    Blend: CC-PVTZ-JKFIT

    Orbital Energies [Eh]
    ---------------------

    Doubly Occupied:

       1A    -11.209001     2A     -0.941671     3A     -0.544238
       4A     -0.543968     5A     -0.543841

  @DF-RHF Final Energy:   -40.20883862648785

   => Energetics <=

    Nuclear Repulsion Energy =             13.4067910372632895
    One-Electron Energy =                 -79.6658196900083766
    Two-Electron Energy =                  26.0501900262572406
    Total Energy =                        -40.2088386264878466

  Dipole Moment: [D]
     X:     0.0003      Y:    -0.0001      Z:    -0.0004     Total:     0.0005

  Basis Set: (6-311G** AUX)
    Blend: CC-PVTZ-RI
	 Reference Energy          =     -40.2088386264878466 [Eh]
	 Singles Energy            =      -0.0000000000000000 [Eh]
	 Same-Spin Energy          =      -0.0320023090227562 [Eh]
	 Opposite-Spin Energy      =      -0.1383627099290209 [Eh]
	 Correlation Energy        =      -0.1703650189517771 [Eh]
	 Total Energy              =     -40.3792036454396239 [Eh]

	 ================> DF-SCS-MP2 Energies <==================
	-----------------------------------------------------------
	 SCS Same-Spin Scale       =       0.3333333333333333 [-]
	 SCS Opposite-Spin Scale   =       1.2000000000000000 [-]
	 SCS Same-Spin Energy      =      -0.0106674363409187 [Eh]
	 SCS Opposite-Spin Energy  =      -0.1660352519148251 [Eh]
	 SCS Correlation Energy    =      -0.1767026882557438 [Eh]
	 SCS Total Energy          =     -40.3855413147435911 [Eh]
	-----------------------------------------------------------

*** Psi4 exiting successfully. Buy a developer a beer!
