                               Psi4 1.3.2 release

  ==> Input File <==

--------------------------------------------------------------------------
molecule {
-2 1
P         -0.52133       -0.05613       -0.00037
O          0.94974        0.80380        0.00260
O         -1.51710        1.10598       -0.02103
O         -0.49639       -0.87148        1.29933
O         -0.47513       -0.90069       -1.28081
C          2.12701        0.03937        0.00085
H          2.18506       -0.61983        0.88004
H          2.98859        0.71983        0.01529
H          2.19523       -0.59521       -0.89556
}
memory 100GB
set_num_threads(8)
psi4_io.set_default_path("/scratch/bdw2292/Psi4-MonoMethylPhosphate0H")
set freeze_core True
set PROPERTIES_ORIGIN ["COM"]
E, wfn = energy('mp2/6-311G**',properties=['dipole'],return_wfn=True)
fchk(wfn, "MonoMethylPhosphate0H-dma.fchk")
clean()
--------------------------------------------------------------------------

    Molecular point group: c1

    Geometry (in Angstrom), charge = -2, multiplicity = 1:

       Center              X                  Y                   Z               Mass
    ------------   -----------------  -----------------  -----------------  -----------------
         P           -0.450304683381    -0.060093177023    -0.000369522178    30.973761998420
         O            1.020765316619     0.799836822977     0.002600477822    15.994914619570
         O           -1.446074683381     1.102016822977    -0.021029522178    15.994914619570
         O           -0.425364683381    -0.875443177023     1.299330477822    15.994914619570
         O           -0.404104683381    -0.904653177023    -1.280809522178    15.994914619570
         C            2.198035316619     0.035406822977     0.000850477822    12.000000000000
         H            2.256085316619    -0.623793177023     0.880040477822     1.007825032230
         H            3.059615316619     0.715866822977     0.015290477822     1.007825032230
         H            2.266255316619    -0.599173177023    -0.895559522178     1.007825032230

  Charge       = -2
  Multiplicity = 1
  Basis Set: 6-311G**
    Blend: 6-311G**
  Basis Set: (6-311G** AUX)
    Blend: CC-PVTZ-JKFIT

    Orbital Energies [Eh]
    ---------------------

    Doubly Occupied:

       1A    -79.630616     2A    -20.185963     3A    -20.064699
       4A    -20.064400     5A    -20.059520     6A    -10.966719
       7A     -7.152762     8A     -5.051884     9A     -5.050401
      10A     -5.050188    11A     -1.006871    12A     -0.892360
      13A     -0.820337    14A     -0.818298    15A     -0.605385
      16A     -0.360660    17A     -0.301693    18A     -0.289074
      19A     -0.237320    20A     -0.166850    21A     -0.164075
      22A     -0.138551    23A     -0.098064    24A     -0.057009
      25A     -0.053974    26A     -0.052356    27A     -0.012450
      28A     -0.011037    29A      0.020529

  @DF-RHF Final Energy:  -679.85246000938662

   => Energetics <=

    Nuclear Repulsion Energy =            334.2101359174416189
    One-Electron Energy =               -1629.4392207788157521
    Two-Electron Energy =                 615.3766248519874580
    Total Energy =                       -679.8524600093866184

  Dipole Moment: [D]
     X:     5.5851      Y:     0.4267      Z:    -0.0010     Total:     5.6014

  Basis Set: (6-311G** AUX)
    Blend: CC-PVTZ-RI
	 Reference Energy          =    -679.8524600093866184 [Eh]
	 Singles Energy            =      -0.0000000000000000 [Eh]
	 Same-Spin Energy          =      -0.2863171853915660 [Eh]
	 Opposite-Spin Energy      =      -0.7793337615447086 [Eh]
	 Correlation Energy        =      -1.0656509469362745 [Eh]
	 Total Energy              =    -680.9181109563229484 [Eh]

	 ================> DF-SCS-MP2 Energies <==================
	-----------------------------------------------------------
	 SCS Same-Spin Scale       =       0.3333333333333333 [-]
	 SCS Opposite-Spin Scale   =       1.2000000000000000 [-]
	 SCS Same-Spin Energy      =      -0.0954390617971887 [Eh]
	 SCS Opposite-Spin Energy  =      -0.9352005138536502 [Eh]
	 SCS Correlation Energy    =      -1.0306395756508389 [Eh]
	 SCS Total Energy          =    -680.8830995850374848 [Eh]
	-----------------------------------------------------------

*** Psi4 exiting successfully. Buy a developer a beer!
