                               Psi4 1.3.2 release

  ==> Input File <==

--------------------------------------------------------------------------
molecule {
0 1
 P    0.069000    0.472000    0.156000
 O    1.134000   -0.494000    0.866000
 O   -0.890000   -0.480000   -0.710000
 O    0.920000    1.235000   -0.966000
 O   -0.638000    1.429000    1.058000
 C    1.922000   -1.338000    0.053000
 C   -1.855000   -1.220000    0.010000
 H    1.289000   -1.973000   -0.572000
 H    2.529000   -1.978000    0.699000
 H    2.591000   -0.744000   -0.576000
 H   -2.578000   -0.543000    0.473000
 H   -1.371000   -1.829000    0.778000
 H   -2.382000   -1.879000   -0.685000
 H    0.518000    2.104000   -1.147000
}
set {
  geom_maxiter 3
  g_convergence GAU_LOOSE
}
memory 20GB
set_num_threads(4)
psi4_io.set_default_path("/scratch/bdw2292")
for _ in range(1):
  try:
    optimize('wb97x-d/6-31G*')
    break
  except OptimizationConvergenceError:
    try:
      set opt_coordinates cartesian
      optimize('wb97x-d/6-31G*')
      break
    except OptimizationConvergenceError:
      pass
clean()
--------------------------------------------------------------------------

    Molecular point group: c1
  Charge       = 0
  Multiplicity = 1
  Basis Set: 6-31G*
    Blend: 6-31G*
  Basis Set: (6-31G* AUX)
    Blend: CC-PVDZ-JKFIT
  @DF-RKS Final Energy:  -722.60400308569456
    Total Energy =                       -722.6040030856945577
    Molecular point group: c1
  Basis Set: 6-31G*
    Blend: 6-31G*
  Basis Set: (6-31G* AUX)
    Blend: CC-PVDZ-JKFIT
  Basis Set: 6-31G*
    Blend: 6-31G*
  Basis Set: (6-31G* AUX)
    Blend: CC-PVDZ-JKFIT
  @DF-RKS Final Energy:  -722.60690893323931
    Total Energy =                       -722.6069089332393105
  Basis Set: 6-31G*
    Blend: 6-31G*
  Basis Set: (6-31G* AUX)
    Blend: CC-PVDZ-JKFIT
  Basis Set: 6-31G*
    Blend: 6-31G*
  @DF-RKS Final Energy:  -722.60720821806819
    Total Energy =                       -722.6072082180681946
  @DF-RKS Final Energy:  -722.60400308569399
    Total Energy =                       -722.6040030856939893
  Basis Set: (6-31G* AUX)
    Blend: CC-PVDZ-JKFIT
  Basis Set: 6-31G*
    Blend: 6-31G*
  Basis Set: (6-31G* AUX)
    Blend: CC-PVDZ-JKFIT
  @DF-RKS Final Energy:  -722.60620737232114
    Total Energy =                       -722.6062073723211370
  Basis Set: 6-31G*
    Blend: 6-31G*
  Basis Set: (6-31G* AUX)
    Blend: CC-PVDZ-JKFIT
  Charge       = 0
  Multiplicity = 1
  Basis Set: 6-31G*
    Blend: 6-31G*
  Basis Set: (6-31G* AUX)
    Blend: CC-PVDZ-JKFIT

    Orbital Energies [Eh]
    ---------------------

    Doubly Occupied:

       1A    -77.392400     2A    -19.316042     3A    -19.309779
       4A    -19.308008     5A    -19.233179     6A    -10.360435
       7A    -10.359189     8A     -6.800944     9A     -4.950668
      10A     -4.949984    11A     -4.948145    12A     -1.208159
      13A     -1.144995    14A     -1.142356    15A     -1.062624
      16A     -0.826667    17A     -0.807512    18A     -0.704855
      19A     -0.631225    20A     -0.616209    21A     -0.575675
      22A     -0.556736    23A     -0.552773    24A     -0.539257
      25A     -0.532601    26A     -0.477782    27A     -0.459972
      28A     -0.454295    29A     -0.427663    30A     -0.410433
      31A     -0.396904    32A     -0.382279    33A     -0.372172

  @DF-RKS Final Energy:  -722.60706481923978

   => Energetics <=

    Nuclear Repulsion Energy =            454.0463008560067806
    One-Electron Energy =               -1896.5521510513776775
    Two-Electron Energy =                 770.2013184407231847
    DFT Exchange-Correlation Energy =     -50.2969238134128958
    Empirical Dispersion Energy =          -0.0056092511791872
    VV10 Nonlocal Energy =                  0.0000000000000000
    Total Energy =                       -722.6070648192397812

  Dipole Moment: [D]
     X:     0.4375      Y:    -2.3587      Z:    -2.1282     Total:     3.2069

    Molecular point group: c1
  Basis Set: 6-31G*
    Blend: 6-31G*
  Basis Set: (6-31G* AUX)
    Blend: CC-PVDZ-JKFIT

  -Total Gradient:
     Atom            X                  Y                   Z
    ------   -----------------  -----------------  -----------------
       1        0.000342181870    -0.001477603853    -0.000330742486
       2       -0.000426517944    -0.000641339178     0.000024627713
       3        0.000120972907     0.000461840450     0.000767638330
       4        0.000548334413     0.002141152818     0.000804936585
       5       -0.000129854097     0.001590230922    -0.002012848789
       6        0.000215695880     0.000044323552    -0.000979567741
       7       -0.000144136086     0.000074611709     0.000619256600
       8        0.000017286219    -0.000375230549    -0.000545266402
       9        0.000193112495    -0.000346883290     0.000597912328
      10        0.000077479201    -0.000085892858    -0.000431504511
      11       -0.000012035273     0.000078360976     0.000297039409
      12       -0.000124915791    -0.000376010686     0.000596019644
      13        0.000170786806    -0.000547971631    -0.000773910626
      14       -0.000431221493    -0.001677731337     0.000746067924

    Molecular point group: c1

    Geometry (in Angstrom), charge = 0, multiplicity = 1:

    P           -0.036355532017     0.468359808431     0.100404568823
    O            1.023256099665    -0.503526985184     0.789602546891
    O           -0.956225362913    -0.505849580553    -0.785920448726
    O            0.829092976424     1.190542098481    -1.044275376670
    O           -0.744946293816     1.357526122932     1.028578761981
    C            1.829940285960    -1.372383236831    -0.011803521122
    C           -1.939129395283    -1.284835027622    -0.095383978412
    H            1.202336976538    -2.014079884200    -0.638039324882
    H            2.407096863880    -1.981124188442     0.684392490449
    H            2.503640848500    -0.787758830759    -0.643698197989
    H           -2.664278894200    -0.631278388018     0.396654220345
    H           -1.465105155555    -1.933673311922     0.650339259183
    H           -2.432493509613    -1.897017817396    -0.852116127015
    H            0.466928033293     2.069591970145    -1.216351069070

*** Psi4 exiting successfully. Buy a developer a beer!
