                               Psi4 1.3.2 release

  ==> Input File <==

--------------------------------------------------------------------------
molecule {
0 1
P           -0.036355532017     0.468359808431     0.100404568823
O            1.023256099665    -0.503526985184     0.789602546891
O           -0.956225362913    -0.505849580553    -0.785920448726
O            0.829092976424     1.190542098481    -1.044275376670
O           -0.744946293816     1.357526122932     1.028578761981
C            1.829940285960    -1.372383236831    -0.011803521122
C           -1.939129395283    -1.284835027622    -0.095383978412
H            1.202336976538    -2.014079884200    -0.638039324882
H            2.407096863880    -1.981124188442     0.684392490449
H            2.503640848500    -0.787758830759    -0.643698197989
H           -2.664278894200    -0.631278388018     0.396654220345
H           -1.465105155555    -1.933673311922     0.650339259183
H           -2.432493509613    -1.897017817396    -0.852116127015
H            0.466928033293     2.069591970145    -1.216351069070
}
memory 20GB
set_num_threads(4)
psi4_io.set_default_path("/scratch/bdw2292")
set freeze_core True
set PROPERTIES_ORIGIN ["COM"]
E, wfn = energy('mp2/6-311G**',properties=['dipole'],return_wfn=True)
fchk(wfn, "DiMethylPhosphate1H-dma.fchk")
clean()
--------------------------------------------------------------------------

    Molecular point group: c1

    Geometry (in Angstrom), charge = 0, multiplicity = 1:

       Center              X                  Y                   Z               Mass
    ------------   -----------------  -----------------  -----------------  -----------------
         P           -0.036355532017     0.468359808431     0.100404568823    30.973761998420
         O            1.023256099665    -0.503526985184     0.789602546891    15.994914619570
         O           -0.956225362913    -0.505849580553    -0.785920448726    15.994914619570
         O            0.829092976424     1.190542098481    -1.044275376670    15.994914619570
         O           -0.744946293816     1.357526122932     1.028578761981    15.994914619570
         C            1.829940285960    -1.372383236831    -0.011803521122    12.000000000000
         C           -1.939129395283    -1.284835027622    -0.095383978412    12.000000000000
         H            1.202336976538    -2.014079884200    -0.638039324882     1.007825032230
         H            2.407096863880    -1.981124188442     0.684392490449     1.007825032230
         H            2.503640848500    -0.787758830759    -0.643698197989     1.007825032230
         H           -2.664278894200    -0.631278388018     0.396654220345     1.007825032230
         H           -1.465105155555    -1.933673311922     0.650339259183     1.007825032230
         H           -2.432493509613    -1.897017817396    -0.852116127015     1.007825032230
         H            0.466928033293     2.069591970145    -1.216351069070     1.007825032230

  Charge       = 0
  Multiplicity = 1
  Basis Set: 6-311G**
    Blend: 6-311G**
  Basis Set: (6-311G** AUX)
    Blend: CC-PVTZ-JKFIT

    Orbital Energies [Eh]
    ---------------------

    Doubly Occupied:

       1A    -80.111767     2A    -20.605650     3A    -20.595578
       4A    -20.595133     5A    -20.512020     6A    -11.300767
       7A    -11.300593     8A     -7.635061     9A     -5.533416
      10A     -5.532937    11A     -5.532828    12A     -1.464253
      13A     -1.392122    14A     -1.390967    15A     -1.305275
      16A     -0.978764    17A     -0.960655    18A     -0.825578
      19A     -0.741007    20A     -0.716987    21A     -0.684586
      22A     -0.660416    23A     -0.646889    24A     -0.636580
      25A     -0.633226    26A     -0.574489    27A     -0.563144
      28A     -0.542863    29A     -0.518309    30A     -0.499844
      31A     -0.489021    32A     -0.471119    33A     -0.463769

  @DF-RHF Final Energy:  -720.19188292506556

   => Energetics <=

    Nuclear Repulsion Energy =            454.0040035536760570
    One-Electron Energy =               -1895.5605468736605417
    Two-Electron Energy =                 721.3646603949189284
    Total Energy =                       -720.1918829250655563

  Dipole Moment: [D]
     X:     0.5108      Y:    -2.6945      Z:    -2.3569     Total:     3.6161

  Basis Set: (6-311G** AUX)
    Blend: CC-PVTZ-RI
	 Reference Energy          =    -720.1918829250655563 [Eh]
	 Singles Energy            =      -0.0000000000000000 [Eh]
	 Same-Spin Energy          =      -0.3119779993201939 [Eh]
	 Opposite-Spin Energy      =      -0.8972968941712791 [Eh]
	 Correlation Energy        =      -1.2092748934914730 [Eh]
	 Total Energy              =    -721.4011578185570670 [Eh]

	 ================> DF-SCS-MP2 Energies <==================
	-----------------------------------------------------------
	 SCS Same-Spin Scale       =       0.3333333333333333 [-]
	 SCS Opposite-Spin Scale   =       1.2000000000000000 [-]
	 SCS Same-Spin Energy      =      -0.1039926664400646 [Eh]
	 SCS Opposite-Spin Energy  =      -1.0767562730055349 [Eh]
	 SCS Correlation Energy    =      -1.1807489394455994 [Eh]
	 SCS Total Energy          =    -721.3726318645111633 [Eh]
	-----------------------------------------------------------

*** Psi4 exiting successfully. Buy a developer a beer!
