                               Psi4 1.3.2 release

  ==> Input File <==

--------------------------------------------------------------------------
molecule {
0 1
 O    0.642000   -1.121000    0.044000
 N    0.750000    1.131000   -0.033000
 C   -1.434000    0.090000    0.003000
 C    0.062000   -0.044000   -0.001000
 H   -1.867000   -0.691000   -0.628000
 H   -1.801000   -0.016000    1.027000
 H   -1.745000    1.061000   -0.393000
 H    1.761000    1.082000   -0.004000
 H    0.305000    2.036000    0.006000
}
set {
  geom_maxiter 3
  g_convergence GAU_LOOSE
}
memory 700MB
set_num_threads(1)
psi4_io.set_default_path("/scratch/bdw2292")
for _ in range(1):
  try:
    optimize('wb97x-d/6-31G*')
    break
  except OptimizationConvergenceError:
    try:
      set opt_coordinates cartesian
      optimize('wb97x-d/6-31G*')
      break
    except OptimizationConvergenceError:
      pass
clean()
--------------------------------------------------------------------------

    Molecular point group: c1
  Charge       = 0
  Multiplicity = 1
  Basis Set: 6-31G*
    Blend: 6-31G*
  Basis Set: (6-31G* AUX)
    Blend: CC-PVDZ-JKFIT
  @DF-RKS Final Energy:  -209.14512293511376
    Total Energy =                       -209.1451229351137613
    Molecular point group: c1
  Basis Set: 6-31G*
    Blend: 6-31G*
  Basis Set: (6-31G* AUX)
    Blend: CC-PVDZ-JKFIT
  Basis Set: 6-31G*
    Blend: 6-31G*
  Basis Set: (6-31G* AUX)
    Blend: CC-PVDZ-JKFIT
  @DF-RKS Final Energy:  -209.14564634535466
    Total Energy =                       -209.1456463453546633
  Basis Set: 6-31G*
    Blend: 6-31G*
  Basis Set: (6-31G* AUX)
    Blend: CC-PVDZ-JKFIT
  Basis Set: 6-31G*
    Blend: 6-31G*
  @DF-RKS Final Energy:  -209.14550853079129
    Total Energy =                       -209.1455085307912896
  @DF-RKS Final Energy:  -209.14512293511376
    Total Energy =                       -209.1451229351137613
  Basis Set: (6-31G* AUX)
    Blend: CC-PVDZ-JKFIT
  Basis Set: 6-31G*
    Blend: 6-31G*
  Basis Set: (6-31G* AUX)
    Blend: CC-PVDZ-JKFIT
  @DF-RKS Final Energy:  -209.14562914516998
    Total Energy =                       -209.1456291451699485
  Basis Set: 6-31G*
    Blend: 6-31G*
  Basis Set: (6-31G* AUX)
    Blend: CC-PVDZ-JKFIT
  Charge       = 0
  Multiplicity = 1
  Basis Set: 6-31G*
    Blend: 6-31G*
  Basis Set: (6-31G* AUX)
    Blend: CC-PVDZ-JKFIT

    Orbital Energies [Eh]
    ---------------------

    Doubly Occupied:

       1A    -19.225041     2A    -14.471470     3A    -10.400303
       4A    -10.300540     5A     -1.127523     6A     -0.999505
       7A     -0.835151     8A     -0.678534     9A     -0.626866
      10A     -0.554315    11A     -0.531319    12A     -0.483855
      13A     -0.479059    14A     -0.447425    15A     -0.344916
      16A     -0.326924

  @DF-RKS Final Energy:  -209.14568212345054

   => Energetics <=

    Nuclear Repulsion Energy =            121.5800522671646604
    One-Electron Energy =                -524.5751365520117133
    Two-Electron Energy =                 213.3165728480024654
    DFT Exchange-Correlation Energy =     -19.4648540734848581
    Empirical Dispersion Energy =          -0.0023166131211065
    VV10 Nonlocal Energy =                  0.0000000000000000
    Total Energy =                       -209.1456821234505412

  Dipole Moment: [D]
     X:    -0.9374      Y:     3.6929      Z:     0.1263     Total:     3.8122

    Molecular point group: c1
  Basis Set: 6-31G*
    Blend: 6-31G*
  Basis Set: (6-31G* AUX)
    Blend: CC-PVDZ-JKFIT

  -Total Gradient:
     Atom            X                  Y                   Z
    ------   -----------------  -----------------  -----------------
       1        0.001019093313    -0.000299646491     0.000429930783
       2        0.000213291339     0.000522419580     0.000318780798
       3        0.001013580393     0.000247532431     0.000909307921
       4       -0.001641984068     0.000203482160    -0.001192238909
       5       -0.000243923504    -0.000221373248    -0.000181332788
       6       -0.000255858376    -0.000003702170    -0.000166999733
       7       -0.000197617634     0.000176140672    -0.000064475222
       8       -0.000257628188    -0.000217934456     0.000069958886
       9        0.000309978712     0.000146417065    -0.000006243168

    Molecular point group: c1

    Geometry (in Angstrom), charge = 0, multiplicity = 1:

    O            0.581360737471    -1.174787187362     0.048614241112
    N            0.778572705758     1.077397303647    -0.061956592736
    C           -1.454601013884     0.103783932951     0.005638870371
    C            0.053374188836    -0.079143874023     0.001738607614
    H           -1.904533022802    -0.698688988235    -0.581326830704
    H           -1.819284319149     0.010348398503     1.033938863972
    H           -1.774570837155     1.071369831252    -0.390694185757
    H            1.783065025183     1.008510705361    -0.012459797748
    H            0.355112237649     1.990064762999    -0.047997100286

*** Psi4 exiting successfully. Buy a developer a beer!
