                               Psi4 1.3.2 release

  ==> Input File <==

--------------------------------------------------------------------------
molecule {
0 1
O            0.581360737471    -1.174787187362     0.048614241112
N            0.778572705758     1.077397303647    -0.061956592736
C           -1.454601013884     0.103783932951     0.005638870371
C            0.053374188836    -0.079143874023     0.001738607614
H           -1.904533022802    -0.698688988235    -0.581326830704
H           -1.819284319149     0.010348398503     1.033938863972
H           -1.774570837155     1.071369831252    -0.390694185757
H            1.783065025183     1.008510705361    -0.012459797748
H            0.355112237649     1.990064762999    -0.047997100286
}
memory 700MB
set_num_threads(1)
psi4_io.set_default_path("/scratch/bdw2292")
set freeze_core True
set PROPERTIES_ORIGIN ["COM"]
E, wfn = energy('mp2/6-311G**',properties=['dipole'],return_wfn=True)
fchk(wfn, "acetamide-dma.fchk")
clean()
--------------------------------------------------------------------------

    Molecular point group: c1

    Geometry (in Angstrom), charge = 0, multiplicity = 1:

       Center              X                  Y                   Z               Mass
    ------------   -----------------  -----------------  -----------------  -----------------
         O            0.581360737471    -1.174787187362     0.048614241112    15.994914619570
         N            0.778572705758     1.077397303647    -0.061956592736    14.003074004430
         C           -1.454601013884     0.103783932951     0.005638870371    12.000000000000
         C            0.053374188836    -0.079143874023     0.001738607614    12.000000000000
         H           -1.904533022802    -0.698688988235    -0.581326830704     1.007825032230
         H           -1.819284319149     0.010348398503     1.033938863972     1.007825032230
         H           -1.774570837155     1.071369831252    -0.390694185757     1.007825032230
         H            1.783065025183     1.008510705361    -0.012459797748     1.007825032230
         H            0.355112237649     1.990064762999    -0.047997100286     1.007825032230

  Charge       = 0
  Multiplicity = 1
  Basis Set: 6-311G**
    Blend: 6-311G**
  Basis Set: (6-311G** AUX)
    Blend: CC-PVTZ-JKFIT

    Orbital Energies [Eh]
    ---------------------

    Doubly Occupied:

       1A    -20.507049     2A    -15.578831     3A    -11.352118
       4A    -11.238827     5A     -1.376105     6A     -1.206722
       7A     -1.001392     8A     -0.796302     9A     -0.721527
      10A     -0.660769    11A     -0.611572    12A     -0.582943
      13A     -0.559251    14A     -0.521686    15A     -0.419622
      16A     -0.409797

  @DF-RHF Final Energy:  -208.03466975681096

   => Energetics <=

    Nuclear Repulsion Energy =            121.5532725043814253
    One-Electron Energy =                -524.0868600846122263
    Two-Electron Energy =                 194.4989178234198448
    Total Energy =                       -208.0346697568109562

  Dipole Moment: [D]
     X:    -1.2090      Y:     3.9894      Z:     0.0499     Total:     4.1689

  Basis Set: (6-311G** AUX)
    Blend: CC-PVTZ-RI
	 Reference Energy          =    -208.0346697568109562 [Eh]
	 Singles Energy            =      -0.0000000000000000 [Eh]
	 Same-Spin Energy          =      -0.1682612533081600 [Eh]
	 Opposite-Spin Energy      =      -0.4944324278745318 [Eh]
	 Correlation Energy        =      -0.6626936811826918 [Eh]
	 Total Energy              =    -208.6973634379936584 [Eh]

	 ================> DF-SCS-MP2 Energies <==================
	-----------------------------------------------------------
	 SCS Same-Spin Scale       =       0.3333333333333333 [-]
	 SCS Opposite-Spin Scale   =       1.2000000000000000 [-]
	 SCS Same-Spin Energy      =      -0.0560870844360533 [Eh]
	 SCS Opposite-Spin Energy  =      -0.5933189134494382 [Eh]
	 SCS Correlation Energy    =      -0.6494059978854916 [Eh]
	 SCS Total Energy          =    -208.6840757546964369 [Eh]
	-----------------------------------------------------------

*** Psi4 exiting successfully. Buy a developer a beer!
