                               Psi4 1.3.2 release

  ==> Input File <==

--------------------------------------------------------------------------
molecule {
0 1
O           -0.000304739719     0.066251069000     0.000000000000
H           -0.757756578885    -0.529209961077     0.000000000000
H            0.762593019367    -0.522242580998     0.000000000000
}
memory 700MB
set_num_threads(1)
psi4_io.set_default_path("/scratch/bdw2292/Psi4-water")
set freeze_core True
set PROPERTIES_ORIGIN ["COM"]
E, wfn = energy('mp2/6-311G**',properties=['dipole'],return_wfn=True)
fchk(wfn, "water-dma.fchk")
clean()
--------------------------------------------------------------------------

    Molecular point group: cs

    Geometry (in Angstrom), charge = 0, multiplicity = 1:

       Center              X                  Y                   Z               Mass
    ------------   -----------------  -----------------  -----------------  -----------------
         O           -0.000304739719     0.066251069000     0.000000000000    15.994914619570
         H           -0.757756578885    -0.529209961077     0.000000000000     1.007825032230
         H            0.762593019367    -0.522242580998     0.000000000000     1.007825032230

  Charge       = 0
  Multiplicity = 1
  Basis Set: 6-311G**
    Blend: 6-311G**
  Basis Set: (6-311G** AUX)
    Blend: CC-PVTZ-JKFIT

    Orbital Energies [Eh]
    ---------------------

    Doubly Occupied:

       1Ap   -20.546222     2Ap    -1.338428     3Ap    -0.702463
       4Ap    -0.571353     1App   -0.499432

  @DF-RHF Final Energy:   -76.04594021666014

   => Energetics <=

    Nuclear Repulsion Energy =              9.1356877098879519
    One-Electron Energy =                -123.0474610404717737
    Two-Electron Energy =                  37.8658331139236850
    Total Energy =                        -76.0459402166601421

  Dipole Moment: [D]
     X:     0.0100      Y:    -2.1765      Z:     0.0000     Total:     2.1765

  Basis Set: (6-311G** AUX)
    Blend: CC-PVTZ-RI
	 Reference Energy          =     -76.0459402166601421 [Eh]
	 Singles Energy            =      -0.0000000000000000 [Eh]
	 Same-Spin Energy          =      -0.0546133371780678 [Eh]
	 Opposite-Spin Energy      =      -0.1632298629728229 [Eh]
	 Correlation Energy        =      -0.2178432001508906 [Eh]
	 Total Energy              =     -76.2637834168110373 [Eh]

	 ================> DF-SCS-MP2 Energies <==================
	-----------------------------------------------------------
	 SCS Same-Spin Scale       =       0.3333333333333333 [-]
	 SCS Opposite-Spin Scale   =       1.2000000000000000 [-]
	 SCS Same-Spin Energy      =      -0.0182044457260226 [Eh]
	 SCS Opposite-Spin Energy  =      -0.1958758355673874 [Eh]
	 SCS Correlation Energy    =      -0.2140802812934100 [Eh]
	 SCS Total Energy          =     -76.2600204979535476 [Eh]
	-----------------------------------------------------------

*** Psi4 exiting successfully. Buy a developer a beer!
