                               Psi4 1.3.2 release

  ==> Input File <==

--------------------------------------------------------------------------
molecule {
0 1
 O   -0.005700    0.385200   -0.000000
 H   -0.796100   -0.194700   -0.000000
 H    0.801800   -0.190500    0.000000
}
set {
  geom_maxiter 3
  g_convergence GAU_LOOSE
}
memory 700MB
set_num_threads(1)
psi4_io.set_default_path("/scratch/bdw2292/Psi4-water")
for _ in range(1):
  try:
    optimize('wb97x-d/6-31G*')
    break
  except OptimizationConvergenceError:
    try:
      set opt_coordinates cartesian
      optimize('wb97x-d/6-31G*')
      break
    except OptimizationConvergenceError:
      pass
clean()
--------------------------------------------------------------------------

    Molecular point group: cs
  Charge       = 0
  Multiplicity = 1
  Basis Set: 6-31G*
    Blend: 6-31G*
  Basis Set: (6-31G* AUX)
    Blend: CC-PVDZ-JKFIT
  @DF-RKS Final Energy:   -76.38547434542760
    Total Energy =                        -76.3854743454276104
    Molecular point group: cs
  Basis Set: 6-31G*
    Blend: 6-31G*
  Basis Set: (6-31G* AUX)
    Blend: CC-PVDZ-JKFIT
  Basis Set: 6-31G*
    Blend: 6-31G*
  Basis Set: (6-31G* AUX)
    Blend: CC-PVDZ-JKFIT
  @DF-RKS Final Energy:   -76.38704804896580
    Total Energy =                        -76.3870480489657950
  Basis Set: 6-31G*
    Blend: 6-31G*
  Basis Set: (6-31G* AUX)
    Blend: CC-PVDZ-JKFIT
  Charge       = 0
  Multiplicity = 1
  Basis Set: 6-31G*
    Blend: 6-31G*
  Basis Set: (6-31G* AUX)
    Blend: CC-PVDZ-JKFIT

    Orbital Energies [Eh]
    ---------------------

    Doubly Occupied:

       1Ap   -19.259690     2Ap    -1.099738     3Ap    -0.607384
       4Ap    -0.459677     1App   -0.379437

  @DF-RKS Final Energy:   -76.38708670578633

   => Energetics <=

    Nuclear Repulsion Energy =              9.1356877098888294
    One-Electron Energy =                -123.0286914903216910
    Two-Electron Energy =                  43.9941740893013673
    DFT Exchange-Correlation Energy =      -6.4882295363937912
    Empirical Dispersion Energy =          -0.0000274782610513
    VV10 Nonlocal Energy =                  0.0000000000000000
    Total Energy =                        -76.3870867057863308

  Dipole Moment: [D]
     X:     0.0099      Y:    -2.1506      Z:     0.0000     Total:     2.1506

    Molecular point group: cs
  Basis Set: 6-31G*
    Blend: 6-31G*
  Basis Set: (6-31G* AUX)
    Blend: CC-PVDZ-JKFIT

  -Total Gradient:
     Atom            X                  Y                   Z
    ------   -----------------  -----------------  -----------------
       1       -0.000014607226     0.000327132082     0.000000000000
       2       -0.000237941707    -0.000180917901     0.000000000000
       3        0.000252734825    -0.000188876555     0.000000000000

  **** Optimization is complete! (in 3 steps) ****
    Final optimized geometry and variables:
    Molecular point group: cs

    Geometry (in Angstrom), charge = 0, multiplicity = 1:

    O           -0.000304739719     0.066251069000     0.000000000000
    H           -0.757756578885    -0.529209961077     0.000000000000
    H            0.762593019367    -0.522242580998     0.000000000000

*** Psi4 exiting successfully. Buy a developer a beer!
