                               Psi4 1.3.2 release

  ==> Input File <==

--------------------------------------------------------------------------
molecule {
0 1
 C   -0.668000    0.000000   -0.000000
 C    0.668000    0.000000   -0.000000
 H   -1.228000   -0.927000    0.071000
 H   -1.228000    0.927000   -0.071000
 H    1.228000    0.927000   -0.071000
 H    1.228000   -0.927000    0.071000
}
set {
  geom_maxiter 3
  g_convergence GAU_LOOSE
}
memory 700MB
set_num_threads(1)
psi4_io.set_default_path("/scratch/bdw2292")
for _ in range(1):
  try:
    optimize('wb97x-d/6-31G*')
    break
  except OptimizationConvergenceError:
    try:
      set opt_coordinates cartesian
      optimize('wb97x-d/6-31G*')
      break
    except OptimizationConvergenceError:
      pass
clean()
--------------------------------------------------------------------------

    Molecular point group: d2h
  Charge       = 0
  Multiplicity = 1
  Basis Set: 6-31G*
    Blend: 6-31G*
  Basis Set: (6-31G* AUX)
    Blend: CC-PVDZ-JKFIT
  @DF-RKS Final Energy:   -78.55573716290941
    Total Energy =                        -78.5557371629094092
    Molecular point group: d2h
  Basis Set: 6-31G*
    Blend: 6-31G*
  Basis Set: (6-31G* AUX)
    Blend: CC-PVDZ-JKFIT
  Charge       = 0
  Multiplicity = 1
  Basis Set: 6-31G*
    Blend: 6-31G*
  Basis Set: (6-31G* AUX)
    Blend: CC-PVDZ-JKFIT

    Orbital Energies [Eh]
    ---------------------

    Doubly Occupied:

       1Ag   -10.294112     1B3u  -10.293176     2Ag    -0.854371
       2B3u   -0.668371     1B2u   -0.553265     3Ag    -0.498808
       1B1g   -0.433897     1B1u   -0.348038

  @DF-RKS Final Energy:   -78.55588467402022

   => Energetics <=

    Nuclear Repulsion Energy =             33.3922278756036377
    One-Electron Energy =                -170.3972770903912135
    Two-Electron Energy =                  66.7636103722662000
    DFT Exchange-Correlation Energy =      -8.3136109018697386
    Empirical Dispersion Energy =          -0.0008349296291283
    VV10 Nonlocal Energy =                  0.0000000000000000
    Total Energy =                        -78.5558846740202199

  Dipole Moment: [D]
     X:     0.0000      Y:     0.0000      Z:    -0.0000     Total:     0.0000

    Molecular point group: d2h
  Basis Set: 6-31G*
    Blend: 6-31G*
  Basis Set: (6-31G* AUX)
    Blend: CC-PVDZ-JKFIT

  -Total Gradient:
     Atom            X                  Y                   Z
    ------   -----------------  -----------------  -----------------
       1       -0.001453719404    -0.000000000000     0.000000000000
       2        0.001453719404     0.000000000000     0.000000000000
       3        0.000721503453    -0.000234418855     0.000000000000
       4        0.000721503453     0.000234418855    -0.000000000000
       5       -0.000721503453     0.000234418855    -0.000000000000
       6       -0.000721503453    -0.000234418855    -0.000000000000

  **** Optimization is complete! (in 2 steps) ****
    Final optimized geometry and variables:
    Molecular point group: d2h

    Geometry (in Angstrom), charge = 0, multiplicity = 1:

    C           -0.664245839887    -0.000000000000     0.000000000000
    C            0.664245839887     0.000000000000     0.000000000000
    H           -1.232024488278    -0.926223415149     0.000000000000
    H           -1.232024488278     0.926223415149    -0.000000000000
    H            1.232024488278     0.926223415149     0.000000000000
    H            1.232024488278    -0.926223415149    -0.000000000000

*** Psi4 exiting successfully. Buy a developer a beer!
