                               Psi4 1.3.2 release

  ==> Input File <==

--------------------------------------------------------------------------
molecule {
0 1
C           -0.664245839887    -0.000000000000     0.000000000000
C            0.664245839887     0.000000000000     0.000000000000
H           -1.232024488278    -0.926223415149     0.000000000000
H           -1.232024488278     0.926223415149    -0.000000000000
H            1.232024488278     0.926223415149     0.000000000000
H            1.232024488278    -0.926223415149    -0.000000000000
}
memory 700MB
set_num_threads(1)
psi4_io.set_default_path("/scratch/bdw2292")
set freeze_core True
set PROPERTIES_ORIGIN ["COM"]
E, wfn = energy('mp2/6-311G**',properties=['dipole'],return_wfn=True)
fchk(wfn, "ethene-dma.fchk")
clean()
--------------------------------------------------------------------------

    Molecular point group: d2h

    Geometry (in Angstrom), charge = 0, multiplicity = 1:

       Center              X                  Y                   Z               Mass
    ------------   -----------------  -----------------  -----------------  -----------------
         C           -0.664245839887    -0.000000000000     0.000000000000    12.000000000000
         C            0.664245839887     0.000000000000     0.000000000000    12.000000000000
         H           -1.232024488278    -0.926223415149     0.000000000000     1.007825032230
         H           -1.232024488278     0.926223415149     0.000000000000     1.007825032230
         H            1.232024488278     0.926223415149     0.000000000000     1.007825032230
         H            1.232024488278    -0.926223415149     0.000000000000     1.007825032230

  Charge       = 0
  Multiplicity = 1
  Basis Set: 6-311G**
    Blend: 6-311G**
  Basis Set: (6-311G** AUX)
    Blend: CC-PVTZ-JKFIT

    Orbital Energies [Eh]
    ---------------------

    Doubly Occupied:

       1Ag   -11.229143     1B3u  -11.227395     2Ag    -1.032843
       2B3u   -0.788884     1B2u   -0.640936     3Ag    -0.585988
       1B1g   -0.503574     1B1u   -0.376364

  @DF-RHF Final Energy:   -78.05424758993624

   => Energetics <=

    Nuclear Repulsion Energy =             33.3922278756121713
    One-Electron Energy =                -170.1226962042268838
    Two-Electron Energy =                  58.6762207386784738
    Total Energy =                        -78.0542475899362387

  Dipole Moment: [D]
     X:     0.0000      Y:     0.0000      Z:     0.0000     Total:     0.0000

  Basis Set: (6-311G** AUX)
    Blend: CC-PVTZ-RI
	 Reference Energy          =     -78.0542475899362387 [Eh]
	 Singles Energy            =      -0.0000000000000000 [Eh]
	 Same-Spin Energy          =      -0.0634579406044372 [Eh]
	 Opposite-Spin Energy      =      -0.2264494482683201 [Eh]
	 Correlation Energy        =      -0.2899073888727572 [Eh]
	 Total Energy              =     -78.3441549788090015 [Eh]

	 ================> DF-SCS-MP2 Energies <==================
	-----------------------------------------------------------
	 SCS Same-Spin Scale       =       0.3333333333333333 [-]
	 SCS Opposite-Spin Scale   =       1.2000000000000000 [-]
	 SCS Same-Spin Energy      =      -0.0211526468681457 [Eh]
	 SCS Opposite-Spin Energy  =      -0.2717393379219841 [Eh]
	 SCS Correlation Energy    =      -0.2928919847901298 [Eh]
	 SCS Total Energy          =     -78.3471395747263699 [Eh]
	-----------------------------------------------------------

*** Psi4 exiting successfully. Buy a developer a beer!
