 Gaussian 09, Revision A.02,
 Gaussian 09:  EM64L-G09RevA.02 11-Jun-2009

 --------------------------------------------
 #P MP2/6-311G** Sp Density=MP2 MaxDisk=150GB
 --------------------------------------------

 ----------------------------------------------------------------------
 MonoMethylPhosphate1H Gaussian SP Calculation on node37.bme.utexas.edu
 ----------------------------------------------------------------------
 Symbolic Z-matrix:
 Charge = -1 Multiplicity = 1

                         Standard orientation:
 ---------------------------------------------------------------------
 Center     Atomic      Atomic             Coordinates (Angstroms)
 Number     Number       Type             X           Y           Z
 ---------------------------------------------------------------------
      1          1           0       -0.661223    1.921661   -0.554905
      2          8           0       -0.547329    1.113913   -1.068151
      3         15           0       -0.495897   -0.076403    0.102728
      4          8           0        0.945526   -0.782244   -0.310171
      5          8           0       -1.539802   -1.106281   -0.156908
      6          8           0       -0.337719    0.666011    1.403674
      7          6           0        2.107585   -0.053092   -0.015782
      8          1           0        2.078270    0.954421   -0.456979
      9          1           0        2.958455   -0.596680   -0.448465
     10          1           0        2.252028    0.054017    1.066574
 ---------------------------------------------------------------------

 SCF Done:  E(RHF) =  -680.612658804     A.U. after   13 cycles
 E2 =    -0.1068614798D+01 EUMP2 =    -0.68168127360126D+03

 The electronic state is 1-A.
 Alpha  occ. eigenvalues --  -79.87633 -20.39237 -20.39150 -20.29735 -20.29083
 Alpha  occ. eigenvalues --  -11.13295  -7.39916  -5.29765  -5.29704  -5.29666
 Alpha  occ. eigenvalues --   -1.23332  -1.17975  -1.09905  -1.06324  -0.78310
 Alpha  occ. eigenvalues --   -0.59843  -0.51986  -0.48054  -0.47101  -0.46639
 Alpha  occ. eigenvalues --   -0.40225  -0.38339  -0.33721  -0.33302  -0.30145
 Alpha  occ. eigenvalues --   -0.28230  -0.26196  -0.24666  -0.23122
 Alpha virt. eigenvalues --    0.29338   0.32231   0.35814   0.37289   0.42161
 Alpha virt. eigenvalues --    0.43372   0.44927   0.47434   0.57325   0.59349
 Alpha virt. eigenvalues --    0.60604   0.62665   0.64141   0.67489   0.75505

 Mulliken atomic charges:
              1
     1  H    0.242432
     2  O   -0.605298
     3  P    1.201113
     4  O   -0.550284
     5  O   -0.671425
     6  O   -0.755640
     7  C   -0.053412
     8  H    0.057133
     9  H    0.052743
    10  H    0.082638
 Sum of Mulliken atomic charges =  -1.00000

 Dipole moment (field-independent basis, Debye):
    X=              4.0375    Y=              2.5706    Z=             -0.9196  Tot=              4.8739
 Quadrupole moment (field-independent basis, Debye-Ang):
   XX=            -50.4476   YY=            -47.9536   ZZ=            -53.9413
   XY=             -3.8826   XZ=              0.1648   YZ=             -2.5376

 Normal termination of Gaussian 09 at Mon Sep 21 15:36:30 2020.
