 Gaussian 09, Revision A.02,
 Gaussian 09:  EM64L-G09RevA.02 11-Jun-2009

 --------------------------------------------------------------------
 #P MP2/aug-cc-pVTZ Sp Density=MP2 SCF=Save MaxDisk=150GB Pop=NBORead
 --------------------------------------------------------------------

 ----------------------------------------------------------------------
 MonoMethylPhosphate1H Gaussian SP Calculation on node37.bme.utexas.edu
 ----------------------------------------------------------------------
 Symbolic Z-matrix:
 Charge = -1 Multiplicity = 1

                         Standard orientation:
 ---------------------------------------------------------------------
 Center     Atomic      Atomic             Coordinates (Angstroms)
 Number     Number       Type             X           Y           Z
 ---------------------------------------------------------------------
      1          1           0       -0.661223    1.921661   -0.554905
      2          8           0       -0.547329    1.113913   -1.068151
      3         15           0       -0.495897   -0.076403    0.102728
      4          8           0        0.945526   -0.782244   -0.310171
      5          8           0       -1.539802   -1.106281   -0.156908
      6          8           0       -0.337719    0.666011    1.403674
      7          6           0        2.107585   -0.053092   -0.015782
      8          1           0        2.078270    0.954421   -0.456979
      9          1           0        2.958455   -0.596680   -0.448465
     10          1           0        2.252028    0.054017    1.066574
 ---------------------------------------------------------------------

 SCF Done:  E(RHF) =  -680.705280037     A.U. after   12 cycles
 E2 =    -0.1322620945D+01 EUMP2 =    -0.68202790098127D+03

 The electronic state is 1-A.
 Alpha  occ. eigenvalues --  -79.87853 -20.40139 -20.40016 -20.31112 -20.30346
 Alpha  occ. eigenvalues --  -11.13357  -7.39492  -5.29376  -5.29288  -5.29159
 Alpha  occ. eigenvalues --   -1.23452  -1.18246  -1.10251  -1.06761  -0.78350
 Alpha  occ. eigenvalues --   -0.59934  -0.52201  -0.48283  -0.47353  -0.46976
 Alpha  occ. eigenvalues --   -0.40697  -0.38651  -0.34355  -0.33718  -0.30615
 Alpha  occ. eigenvalues --   -0.28944  -0.26954  -0.25589  -0.24128
 Alpha virt. eigenvalues --    0.11874   0.13315   0.14098   0.14586   0.18676
 Alpha virt. eigenvalues --    0.19843   0.20362   0.21435   0.23111   0.23474
 Alpha virt. eigenvalues --    0.25453   0.27374   0.28079   0.29029   0.31685

 Mulliken atomic charges:
              1
     1  H    0.177006
     2  O   -0.506046
     3  P    1.252576
     4  O   -0.422208
     5  O   -0.889364
     6  O   -0.825345
     7  C   -0.822841
     8  H    0.365074
     9  H    0.329389
    10  H    0.341759
 Sum of Mulliken atomic charges =  -1.00000

 Dipole moment (field-independent basis, Debye):
    X=              4.1309    Y=              2.3335    Z=             -1.0873  Tot=              4.8674
 Quadrupole moment (field-independent basis, Debye-Ang):
   XX=            -51.7305   YY=            -49.0827   ZZ=            -54.6343
   XY=             -4.0179   XZ=              0.1518   YZ=             -2.6184

 Summary of Natural Population Analysis:

                                       Natural Population
                Natural  -----------------------------------------------
    Atom  No    Charge         Core      Valence    Rydberg      Total
 -----------------------------------------------------------------------
      H    1    0.47423      0.00000     0.51476    0.01101     0.52577
      O    2   -1.02472      1.99967     6.91934    0.10571     9.02472
      P    3    2.45033      9.99847     2.33563    0.21557    12.54967
      O    4   -0.83790      1.99964     6.73256    0.10569     8.83790
      O    5   -1.13938      1.99963     7.01940    0.12036     9.13938
      O    6   -1.18513      1.99964     7.06382    0.12167     9.18513
      C    7   -0.19491      1.99920     4.12835    0.06736     6.19491
      H    8    0.15190      0.00000     0.83861    0.00949     0.84810
      H    9    0.14271      0.00000     0.84772    0.00956     0.85729
      H   10    0.16286      0.00000     0.82776    0.00938     0.83714
 =======================================================================
   * Total *   -1.00000     19.99625    37.22794    0.77581    58.00000

 Normal termination of Gaussian 09 at Mon Sep 21 15:47:54 2020.
